 Entering Gaussian System, Link 0=/home/madghost/g09/g09
 Input=job104.gjf
 Output=job104.log
 Initial command:
 /home/madghost/g09/l1.exe "/scr/natalya/job104/Gau-1492216.inp" -scrdir="/scr/natalya/job104/"
 Entering Link 1 = /home/madghost/g09/l1.exe PID=   1492218.
  
 Copyright (c) 1988,1990,1992,1993,1995,1998,2003,2009,2013,
            Gaussian, Inc.  All Rights Reserved.
  
 This is part of the Gaussian(R) 09 program.  It is based on
 the Gaussian(R) 03 system (copyright 2003, Gaussian, Inc.),
 the Gaussian(R) 98 system (copyright 1998, Gaussian, Inc.),
 the Gaussian(R) 94 system (copyright 1995, Gaussian, Inc.),
 the Gaussian 92(TM) system (copyright 1992, Gaussian, Inc.),
 the Gaussian 90(TM) system (copyright 1990, Gaussian, Inc.),
 the Gaussian 88(TM) system (copyright 1988, Gaussian, Inc.),
 the Gaussian 86(TM) system (copyright 1986, Carnegie Mellon
 University), and the Gaussian 82(TM) system (copyright 1983,
 Carnegie Mellon University). Gaussian is a federally registered
 trademark of Gaussian, Inc.
  
 This software contains proprietary and confidential information,
 including trade secrets, belonging to Gaussian, Inc.
  
 This software is provided under written license and may be
 used, copied, transmitted, or stored only in accord with that
 written license.
  
 The following legend is applicable only to US Government
 contracts under FAR:
  
                    RESTRICTED RIGHTS LEGEND
  
 Use, reproduction and disclosure by the US Government is
 subject to restrictions as set forth in subparagraphs (a)
 and (c) of the Commercial Computer Software - Restricted
 Rights clause in FAR 52.227-19.
  
 Gaussian, Inc.
 340 Quinnipiac St., Bldg. 40, Wallingford CT 06492
  
  
 ---------------------------------------------------------------
 Warning -- This program may not be used in any manner that
 competes with the business of Gaussian, Inc. or will provide
 assistance to any competitor of Gaussian, Inc.  The licensee
 of this program is prohibited from giving any competitor of
 Gaussian, Inc. access to this program.  By using this program,
 the user acknowledges that Gaussian, Inc. is engaged in the
 business of creating and licensing software in the field of
 computational chemistry and represents and warrants to the
 licensee that it is not a competitor of Gaussian, Inc. and that
 it will not use this program in any manner prohibited above.
 ---------------------------------------------------------------
  

 Cite this work as:
 Gaussian 09, Revision D.01,
 M. J. Frisch, G. W. Trucks, H. B. Schlegel, G. E. Scuseria, 
 M. A. Robb, J. R. Cheeseman, G. Scalmani, V. Barone, B. Mennucci, 
 G. A. Petersson, H. Nakatsuji, M. Caricato, X. Li, H. P. Hratchian, 
 A. F. Izmaylov, J. Bloino, G. Zheng, J. L. Sonnenberg, M. Hada, 
 M. Ehara, K. Toyota, R. Fukuda, J. Hasegawa, M. Ishida, T. Nakajima, 
 Y. Honda, O. Kitao, H. Nakai, T. Vreven, J. A. Montgomery, Jr., 
 J. E. Peralta, F. Ogliaro, M. Bearpark, J. J. Heyd, E. Brothers, 
 K. N. Kudin, V. N. Staroverov, T. Keith, R. Kobayashi, J. Normand, 
 K. Raghavachari, A. Rendell, J. C. Burant, S. S. Iyengar, J. Tomasi, 
 M. Cossi, N. Rega, J. M. Millam, M. Klene, J. E. Knox, J. B. Cross, 
 V. Bakken, C. Adamo, J. Jaramillo, R. Gomperts, R. E. Stratmann, 
 O. Yazyev, A. J. Austin, R. Cammi, C. Pomelli, J. W. Ochterski, 
 R. L. Martin, K. Morokuma, V. G. Zakrzewski, G. A. Voth, 
 P. Salvador, J. J. Dannenberg, S. Dapprich, A. D. Daniels, 
 O. Farkas, J. B. Foresman, J. V. Ortiz, J. Cioslowski, 
 and D. J. Fox, Gaussian, Inc., Wallingford CT, 2013.
 
 ******************************************
 Gaussian 09:  EM64L-G09RevD.01 24-Apr-2013
                17-May-2024 
 ******************************************
 %chk=job104
 %nproc=24
 Will use up to   24 processors via shared memory.
 %mem=48000mb
 --------------------------
 #P PBE1PBE/GEN pop=nboread
 --------------------------
 1/38=1/1;
 2/12=2,17=6,18=5,40=1/2;
 3/5=7,11=2,16=1,25=1,30=1,74=-13/1,2,3;
 4//1;
 5/5=2,38=5/2;
 6/7=2,8=2,9=2,10=2,28=1,40=2/1,7;
 99/5=1,9=1/99;
 Leave Link    1 at Fri May 17 10:27:24 2024, MaxMem=  6291456000 cpu:         1.2
 (Enter /home/madghost/g09/l101.exe)
 ---
 c2h
 ---
 Symbolic Z-matrix:
 Charge =  0 Multiplicity = 1
 6                    -0.64074   0.40501  -0.97584 
 1                    -1.50126  -0.25634  -0.86718 
 1                    -0.74767   0.93778  -1.92809 
 6                     0.64074  -0.40501  -0.97584 
 1                     0.74767  -0.93778  -1.92809 
 1                     1.50126   0.25634  -0.86718 
 8                    -0.72287   1.29068   0.11677 
 8                     0.72287  -1.29068   0.11677 
 6                     0.00369   2.43446   0.09894 
 6                     0.75117   2.88789  -0.98363 
 6                    -0.04452   3.19318   1.26701 
 6                     1.43537   4.09394  -0.88786 
 6                     0.64074   4.38949   1.34687 
 6                     1.38776   4.85068   0.26897 
 1                     0.81118   2.32089  -1.9029 
 1                    -0.63021   2.82048   2.09857 
 1                     2.01444   4.43741  -1.73766 
 1                     0.59262   4.96883   2.2619 
 1                     1.92648   5.78793   0.33442 
 6                    -0.00369  -2.43446   0.09894 
 6                    -0.75117  -2.88789  -0.98363 
 6                     0.04452  -3.19318   1.26701 
 6                    -1.43537  -4.09394  -0.88786 
 6                    -0.64074  -4.38949   1.34687 
 6                    -1.38776  -4.85068   0.26897 
 1                    -0.81118  -2.32089  -1.9029 
 1                     0.63021  -2.82048   2.09857 
 1                    -2.01444  -4.43741  -1.73766 
 1                    -0.59262  -4.96883   2.2619 
 1                    -1.92648  -5.78793   0.33442 
 
 NAtoms=     30 NQM=       30 NQMF=       0 NMMI=      0 NMMIF=      0
                NMic=       0 NMicF=      0.
                    Isotopes and Nuclear Properties:
 (Nuclear quadrupole moments (NQMom) in fm**2, nuclear magnetic moments (NMagM)
  in nuclear magnetons)

  Atom         1           2           3           4           5           6           7           8           9          10
 IAtWgt=          12           1           1          12           1           1          16          16          12          12
 AtmWgt=  12.0000000   1.0078250   1.0078250  12.0000000   1.0078250   1.0078250  15.9949146  15.9949146  12.0000000  12.0000000
 NucSpn=           0           1           1           0           1           1           0           0           0           0
 AtZEff=   0.0000000   0.0000000   0.0000000   0.0000000   0.0000000   0.0000000   0.0000000   0.0000000   0.0000000   0.0000000
 NQMom=    0.0000000   0.0000000   0.0000000   0.0000000   0.0000000   0.0000000   0.0000000   0.0000000   0.0000000   0.0000000
 NMagM=    0.0000000   2.7928460   2.7928460   0.0000000   2.7928460   2.7928460   0.0000000   0.0000000   0.0000000   0.0000000
 AtZNuc=   6.0000000   1.0000000   1.0000000   6.0000000   1.0000000   1.0000000   8.0000000   8.0000000   6.0000000   6.0000000

  Atom        11          12          13          14          15          16          17          18          19          20
 IAtWgt=          12          12          12          12           1           1           1           1           1          12
 AtmWgt=  12.0000000  12.0000000  12.0000000  12.0000000   1.0078250   1.0078250   1.0078250   1.0078250   1.0078250  12.0000000
 NucSpn=           0           0           0           0           1           1           1           1           1           0
 AtZEff=   0.0000000   0.0000000   0.0000000   0.0000000   0.0000000   0.0000000   0.0000000   0.0000000   0.0000000   0.0000000
 NQMom=    0.0000000   0.0000000   0.0000000   0.0000000   0.0000000   0.0000000   0.0000000   0.0000000   0.0000000   0.0000000
 NMagM=    0.0000000   0.0000000   0.0000000   0.0000000   2.7928460   2.7928460   2.7928460   2.7928460   2.7928460   0.0000000
 AtZNuc=   6.0000000   6.0000000   6.0000000   6.0000000   1.0000000   1.0000000   1.0000000   1.0000000   1.0000000   6.0000000

  Atom        21          22          23          24          25          26          27          28          29          30
 IAtWgt=          12          12          12          12          12           1           1           1           1           1
 AtmWgt=  12.0000000  12.0000000  12.0000000  12.0000000  12.0000000   1.0078250   1.0078250   1.0078250   1.0078250   1.0078250
 NucSpn=           0           0           0           0           0           1           1           1           1           1
 AtZEff=   0.0000000   0.0000000   0.0000000   0.0000000   0.0000000   0.0000000   0.0000000   0.0000000   0.0000000   0.0000000
 NQMom=    0.0000000   0.0000000   0.0000000   0.0000000   0.0000000   0.0000000   0.0000000   0.0000000   0.0000000   0.0000000
 NMagM=    0.0000000   0.0000000   0.0000000   0.0000000   0.0000000   2.7928460   2.7928460   2.7928460   2.7928460   2.7928460
 AtZNuc=   6.0000000   6.0000000   6.0000000   6.0000000   6.0000000   1.0000000   1.0000000   1.0000000   1.0000000   1.0000000
 Leave Link  101 at Fri May 17 10:27:24 2024, MaxMem=  6291456000 cpu:         2.1
 (Enter /home/madghost/g09/l202.exe)
                          Input orientation:                          
 ---------------------------------------------------------------------
 Center     Atomic      Atomic             Coordinates (Angstroms)
 Number     Number       Type             X           Y           Z
 ---------------------------------------------------------------------
      1          6           0       -0.640735    0.405014   -0.975836
      2          1           0       -1.501264   -0.256335   -0.867175
      3          1           0       -0.747669    0.937777   -1.928091
      4          6           0        0.640735   -0.405014   -0.975836
      5          1           0        0.747669   -0.937777   -1.928091
      6          1           0        1.501264    0.256335   -0.867175
      7          8           0       -0.722868    1.290683    0.116774
      8          8           0        0.722868   -1.290683    0.116774
      9          6           0        0.003694    2.434464    0.098938
     10          6           0        0.751165    2.887886   -0.983635
     11          6           0       -0.044517    3.193180    1.267010
     12          6           0        1.435372    4.093937   -0.887856
     13          6           0        0.640735    4.389485    1.346868
     14          6           0        1.387756    4.850680    0.268969
     15          1           0        0.811175    2.320892   -1.902896
     16          1           0       -0.630207    2.820477    2.098574
     17          1           0        2.014441    4.437413   -1.737662
     18          1           0        0.592617    4.968830    2.261903
     19          1           0        1.926480    5.787927    0.334422
     20          6           0       -0.003694   -2.434464    0.098938
     21          6           0       -0.751165   -2.887886   -0.983635
     22          6           0        0.044517   -3.193180    1.267010
     23          6           0       -1.435372   -4.093937   -0.887856
     24          6           0       -0.640735   -4.389485    1.346868
     25          6           0       -1.387756   -4.850680    0.268969
     26          1           0       -0.811175   -2.320892   -1.902896
     27          1           0        0.630207   -2.820477    2.098574
     28          1           0       -2.014441   -4.437413   -1.737662
     29          1           0       -0.592617   -4.968830    2.261903
     30          1           0       -1.926480   -5.787927    0.334422
 ---------------------------------------------------------------------
                    Distance matrix (angstroms):
                    1          2          3          4          5
     1  C    0.000000
     2  H    1.090734   0.000000
     3  H    1.096386   1.766169   0.000000
     4  C    1.516018   2.149901   2.153496   0.000000
     5  H    2.153496   2.578295   2.398695   1.096386   0.000000
     6  H    2.149901   3.045982   2.578295   1.090734   1.766169
     7  O    1.408883   1.991813   2.075242   2.434871   3.363032
     8  O    2.434871   2.642876   3.363032   1.408883   2.075242
     9  C    2.385182   3.230893   2.629347   3.102192   4.004292
    10  C    2.846419   3.869512   2.634659   3.294760   3.940521
    11  C    3.627630   4.309990   3.973655   4.294988   5.282143
    12  C    4.233924   5.248726   3.976066   4.569436   5.183934
    13  C    4.786766   5.574387   4.956542   5.327492   6.254319
    14  C    5.042644   5.976526   4.969700   5.452513   6.224389
    15  H    2.576446   3.614165   2.084139   2.884277   3.259385
    16  H    3.909804   4.361328   4.446615   4.633690   5.677768
    17  H    4.887799   5.928676   4.462395   5.090830   5.525725
    18  H    5.729967   6.440327   5.966725   6.274031   7.243487
    19  H    6.105991   7.051693   5.982808   6.459290   7.193306
    20  C    3.102192   2.814309   4.004292   2.385182   2.629347
    21  C    3.294760   2.738845   3.940521   2.846419   2.634659
    22  C    4.294988   3.945788   5.282143   3.627630   3.973655
    23  C    4.569436   3.838223   5.183934   4.233924   3.976066
    24  C    5.327492   4.767119   6.254319   4.786766   4.956542
    25  C    5.452513   4.734101   6.224389   5.042644   4.969700
    26  H    2.884277   2.410671   3.259385   2.576446   2.084139
    27  H    4.633690   4.462473   5.677768   3.909804   4.446615
    28  H    5.090830   4.301455   5.525725   4.887799   4.462395
    29  H    6.274031   5.729256   7.243487   5.729967   5.966725
    30  H    6.459290   5.676544   7.193306   6.105991   5.982808
                    6          7          8          9         10
     6  H    0.000000
     7  O    2.642876   0.000000
     8  O    1.991813   2.958649   0.000000
     9  C    2.814309   1.355155   3.793975   0.000000
    10  C    2.738845   2.436130   4.321127   1.391498   0.000000
    11  C    3.945788   2.324370   4.692222   1.393688   2.406598
    12  C    3.838223   3.677705   5.523683   2.403604   1.389918
    13  C    4.767119   3.602099   5.812416   2.405256   2.774569
    14  C    4.734101   4.141434   6.179124   2.789738   2.413881
    15  H    2.410671   2.737460   4.138881   2.161542   1.081723
    16  H    4.462473   2.505272   4.760250   2.132928   3.378275
    17  H    4.301455   4.564395   6.157774   3.380533   2.136693
    18  H    5.729256   4.456551   6.618160   3.383528   3.858624
    19  H    5.676544   5.224138   7.183507   3.872760   3.395420
    20  C    3.230893   3.793975   1.355155   4.868934   5.483538
    21  C    3.869512   4.321127   2.436130   5.483538   5.967959
    22  C    4.309990   4.692222   2.324370   5.747733   6.522585
    23  C    5.248726   5.523683   3.677705   6.757565   7.316828
    24  C    5.574387   5.812416   3.602099   6.966986   7.767159
    25  C    5.976526   6.179124   4.141434   7.418785   8.125848
    26  H    3.614165   4.138881   2.737460   5.223482   5.515190
    27  H    4.361328   4.760250   2.505272   5.657338   6.488455
    28  H    5.928676   6.157774   4.564395   7.393826   7.866202
    29  H    6.440327   6.618160   4.456551   7.735811   8.606233
    30  H    7.051693   7.183507   5.224138   8.449186   9.174791
                   11         12         13         14         15
    11  C    0.000000
    12  C    2.764937   0.000000
    13  C    1.380975   2.390143   0.000000
    14  C    2.407239   1.383174   1.390183   0.000000
    15  H    3.397263   2.136263   3.856046   3.383677   0.000000
    16  H    1.083254   3.847997   2.154563   3.397257   4.282398
    17  H    3.849088   1.084190   3.376935   2.142450   2.440248
    18  H    2.132765   3.375893   1.084088   2.148952   4.940131
    19  H    3.389286   2.145869   2.152632   1.083023   4.274322
    20  C    5.747733   6.757565   6.966986   7.418785   5.223482
    21  C    6.522585   7.316828   7.767159   8.125848   5.515190
    22  C    6.386981   7.725283   7.606488   8.216085   6.406329
    23  C    7.725283   8.676546   9.015135   9.450633   6.872213
    24  C    7.606488   9.015135   8.872005   9.521412   7.595931
    25  C    8.216085   9.450633   9.521412  10.090582   7.809209
    26  H    6.406329   6.872213   7.595931   7.809209   4.917131
    27  H    6.108259   7.574706   7.249050   7.922625   6.517529
    28  H    8.434133   9.241608   9.720001  10.093076   7.327080
    29  H    8.240670   9.806501   9.483486  10.213542   8.512123
    30  H    9.223437  10.509389  10.544921  11.143088   8.846089
                   16         17         18         19         20
    16  H    0.000000
    17  H    4.932074   0.000000
    18  H    2.477377   4.277909   0.000000
    19  H    4.295886   2.474906   2.483001   0.000000
    20  C    5.657338   7.393826   7.735811   8.449186   0.000000
    21  C    6.488455   7.866202   8.606233   9.174791   1.391498
    22  C    6.108259   8.434133   8.240670   9.223437   1.393688
    23  C    7.574706   9.241608   9.806501  10.509389   2.403604
    24  C    7.249050   9.720001   9.483486  10.544921   2.405256
    25  C    7.922625  10.093076  10.213542  11.143088   2.789738
    26  H    6.517529   7.327080   8.512123   8.846089   2.161542
    27  H    5.780052   8.325249   7.791110   8.882408   2.132928
    28  H    8.325249   9.746508  10.548492  11.152666   3.380533
    29  H    7.791110  10.548492  10.008090  11.214671   3.383528
    30  H    8.882408  11.152666  11.214671  12.200233   3.872760
                   21         22         23         24         25
    21  C    0.000000
    22  C    2.406598   0.000000
    23  C    1.389918   2.764937   0.000000
    24  C    2.774569   1.380975   2.390143   0.000000
    25  C    2.413881   2.407239   1.383174   1.390183   0.000000
    26  H    1.081723   3.397263   2.136263   3.856046   3.383677
    27  H    3.378275   1.083254   3.847997   2.154563   3.397257
    28  H    2.136693   3.849088   1.084190   3.376935   2.142450
    29  H    3.858624   2.132765   3.375893   1.084088   2.148952
    30  H    3.395420   3.389286   2.145869   2.152632   1.083023
                   26         27         28         29         30
    26  H    0.000000
    27  H    4.282398   0.000000
    28  H    2.440248   4.932074   0.000000
    29  H    4.940131   2.477377   4.277909   0.000000
    30  H    4.274322   4.295886   2.474906   2.483001   0.000000
 Stoichiometry    C14H14O2
 Framework group  C2[X(C14H14O2)]
 Deg. of freedom    43
 Full point group                 C2      NOp   2
 Largest Abelian subgroup         C2      NOp   2
 Largest concise Abelian subgroup C2      NOp   2
                         Standard orientation:                         
 ---------------------------------------------------------------------
 Center     Atomic      Atomic             Coordinates (Angstroms)
 Number     Number       Type             X           Y           Z
 ---------------------------------------------------------------------
      1          6           0       -0.640735    0.405014   -0.975836
      2          1           0       -1.501264   -0.256335   -0.867175
      3          1           0       -0.747669    0.937777   -1.928091
      4          6           0        0.640735   -0.405014   -0.975836
      5          1           0        0.747669   -0.937777   -1.928091
      6          1           0        1.501264    0.256335   -0.867175
      7          8           0       -0.722868    1.290683    0.116774
      8          8           0        0.722868   -1.290683    0.116774
      9          6           0        0.003694    2.434464    0.098937
     10          6           0        0.751165    2.887886   -0.983635
     11          6           0       -0.044517    3.193180    1.267009
     12          6           0        1.435372    4.093937   -0.887856
     13          6           0        0.640735    4.389485    1.346867
     14          6           0        1.387756    4.850680    0.268968
     15          1           0        0.811175    2.320892   -1.902896
     16          1           0       -0.630207    2.820477    2.098574
     17          1           0        2.014441    4.437413   -1.737662
     18          1           0        0.592617    4.968830    2.261903
     19          1           0        1.926480    5.787927    0.334422
     20          6           0       -0.003694   -2.434464    0.098937
     21          6           0       -0.751165   -2.887886   -0.983635
     22          6           0        0.044517   -3.193180    1.267009
     23          6           0       -1.435372   -4.093937   -0.887856
     24          6           0       -0.640735   -4.389485    1.346867
     25          6           0       -1.387756   -4.850680    0.268968
     26          1           0       -0.811175   -2.320892   -1.902896
     27          1           0        0.630207   -2.820477    2.098574
     28          1           0       -2.014441   -4.437413   -1.737662
     29          1           0       -0.592617   -4.968830    2.261903
     30          1           0       -1.926480   -5.787927    0.334422
 ---------------------------------------------------------------------
 Rotational constants (GHZ):      1.8280184      0.2080327      0.1993369
 Leave Link  202 at Fri May 17 10:27:25 2024, MaxMem=  6291456000 cpu:         0.1
 (Enter /home/madghost/g09/l301.exe)
 General basis read from cards:  (5D, 7F)
 Centers:       2      3      5      6     15     16     17     18     19     26
 Centers:      27     28     29     30
 S 3 1.00
     Exponent=  3.4061341000D+01 Coefficients=  6.0251978000D-03
     Exponent=  5.1235746000D+00 Coefficients=  4.5021094000D-02
     Exponent=  1.1646626000D+00 Coefficients=  2.0189726000D-01
 S 1 1.00
     Exponent=  3.2723041000D-01 Coefficients=  1.0000000000D+00
 S 1 1.00
     Exponent=  1.0307241000D-01 Coefficients=  1.0000000000D+00
 P 1 1.00
     Exponent=  1.4070000000D+00 Coefficients=  1.0000000000D+00
 P 1 1.00
     Exponent=  3.8800000000D-01 Coefficients=  1.0000000000D+00
 D 1 1.00
     Exponent=  1.0570000000D+00 Coefficients=  1.0000000000D+00
 ****
 Centers:       1      4      9     10     11     12     13     14     20     21
 Centers:      22     23     24     25
 S 6 1.00
     Exponent=  1.3575349682D+04 Coefficients=  2.2245814352D-04
     Exponent=  2.0352333680D+03 Coefficients=  1.7232738252D-03
     Exponent=  4.6322562359D+02 Coefficients=  8.9255715314D-03
     Exponent=  1.3120019598D+02 Coefficients=  3.5727984502D-02
     Exponent=  4.2853015891D+01 Coefficients=  1.1076259931D-01
     Exponent=  1.5584185766D+01 Coefficients=  2.4295627626D-01
 S 2 1.00
     Exponent=  6.2067138508D+00 Coefficients=  4.1440263448D-01
     Exponent=  2.5764896527D+00 Coefficients=  2.3744968655D-01
 S 1 1.00
     Exponent=  5.7696339419D-01 Coefficients=  1.0000000000D+00
 S 1 1.00
     Exponent=  2.2972831358D-01 Coefficients=  1.0000000000D+00
 S 1 1.00
     Exponent=  9.5164440028D-02 Coefficients=  1.0000000000D+00
 P 4 1.00
     Exponent=  3.4697232244D+01 Coefficients=  5.3333657805D-03
     Exponent=  7.9582622826D+00 Coefficients=  3.5864109092D-02
     Exponent=  2.3780826883D+00 Coefficients=  1.4215873329D-01
     Exponent=  8.1433208183D-01 Coefficients=  3.4270471845D-01
 P 1 1.00
     Exponent=  2.8887547253D-01 Coefficients=  4.6445822433D-01
 P 1 1.00
     Exponent=  1.0056823671D-01 Coefficients=  2.4955789874D-01
 D 1 1.00
     Exponent=  1.0970000000D+00 Coefficients=  1.0000000000D+00
 D 1 1.00
     Exponent=  3.1800000000D-01 Coefficients=  1.0000000000D+00
 F 1 1.00
     Exponent=  7.6100000000D-01 Coefficients=  1.0000000000D+00
 ****
 Centers:       7      8
 S 6 1.00
     Exponent=  2.7032382631D+04 Coefficients=  2.1726302465D-04
     Exponent=  4.0523871392D+03 Coefficients=  1.6838662199D-03
     Exponent=  9.2232722710D+02 Coefficients=  8.7395616265D-03
     Exponent=  2.6124070989D+02 Coefficients=  3.5239968808D-02
     Exponent=  8.5354641351D+01 Coefficients=  1.1153519115D-01
     Exponent=  3.1035035245D+01 Coefficients=  2.5588953961D-01
 S 2 1.00
     Exponent=  1.2260860728D+01 Coefficients=  3.9768730901D-01
     Exponent=  4.9987076005D+00 Coefficients=  2.4627849430D-01
 S 1 1.00
     Exponent=  1.1703108158D+00 Coefficients=  1.0000000000D+00
 S 1 1.00
     Exponent=  4.6474740994D-01 Coefficients=  1.0000000000D+00
 S 1 1.00
     Exponent=  1.8504536357D-01 Coefficients=  1.0000000000D+00
 P 4 1.00
     Exponent=  6.3274954801D+01 Coefficients=  6.0685103418D-03
     Exponent=  1.4627049379D+01 Coefficients=  4.1912575824D-02
     Exponent=  4.4501223456D+00 Coefficients=  1.6153841088D-01
     Exponent=  1.5275799647D+00 Coefficients=  3.5706951311D-01
 P 1 1.00
     Exponent=  5.2935117943D-01 Coefficients=  4.4794207502D-01
 P 1 1.00
     Exponent=  1.7478421270D-01 Coefficients=  2.4446069663D-01
 D 1 1.00
     Exponent=  2.3140000000D+00 Coefficients=  1.0000000000D+00
 D 1 1.00
     Exponent=  6.4500000000D-01 Coefficients=  1.0000000000D+00
 F 1 1.00
     Exponent=  1.4280000000D+00 Coefficients=  1.0000000000D+00
 ****
 Ernie: Thresh=  0.10000D-02 Tol=  0.10000D-05 Strict=F.
 There are   393 symmetry adapted cartesian basis functions of A   symmetry.
 There are   393 symmetry adapted cartesian basis functions of B   symmetry.
 There are   346 symmetry adapted basis functions of A   symmetry.
 There are   346 symmetry adapted basis functions of B   symmetry.
   692 basis functions,  1054 primitive gaussians,   786 cartesian basis functions
    57 alpha electrons       57 beta electrons
       nuclear repulsion energy      1001.0490767582 Hartrees.
 IExCor= 1009 DFT=T Ex+Corr=PBE1PBE ExCW=0 ScaHFX=  0.250000
 ScaDFX=  0.750000  0.750000  1.000000  1.000000 ScalE2=  1.000000  1.000000
 IRadAn=      0 IRanWt=     -1 IRanGd=            0 ICorTp=0 IEmpDi=  4
 NAtoms=   30 NActive=   30 NUniq=   15 SFac= 4.00D+00 NAtFMM=   60 NAOKFM=F Big=F
 Integral buffers will be    131072 words long.
 Raffenetti 2 integral format.
 Two-electron integral symmetry is turned on.
 Leave Link  301 at Fri May 17 10:27:25 2024, MaxMem=  6291456000 cpu:         1.8
 (Enter /home/madghost/g09/l302.exe)
 NPDir=0 NMtPBC=     1 NCelOv=     1 NCel=       1 NClECP=     1 NCelD=      1
         NCelK=      1 NCelE2=     1 NClLst=     1 CellRange=     0.0.
 One-electron integrals computed using PRISM.
 One-electron integral symmetry used in STVInt
 NBasis=   692 RedAO= T EigKep=  6.09D-06  NBF=   346   346
 NBsUse=   692 1.00D-06 EigRej= -1.00D+00 NBFU=   346   346
 Precomputing XC quadrature grid using
 IXCGrd= 4 IRadAn=           0 IRanWt=          -1 IRanGd=           0 AccXCQ= 0.00D+00.
 Generated NRdTot=       0 NPtTot=           0 NUsed=           0 NTot=          32
 NSgBfM=   764   764   764   764   764 MxSgAt=    30 MxSgA2=    30.
 Leave Link  302 at Fri May 17 10:27:26 2024, MaxMem=  6291456000 cpu:        28.8
 (Enter /home/madghost/g09/l303.exe)
 DipDrv:  MaxL=1.
 Leave Link  303 at Fri May 17 10:27:26 2024, MaxMem=  6291456000 cpu:         3.3
 (Enter /home/madghost/g09/l401.exe)
 ExpMin= 9.52D-02 ExpMax= 2.70D+04 ExpMxC= 9.22D+02 IAcc=2 IRadAn=         4 AccDes= 0.00D+00
 Harris functional with IExCor= 1009 and IRadAn=       4 diagonalized for initial guess.
 HarFok:  IExCor= 1009 AccDes= 0.00D+00 IRadAn=         4 IDoV= 1 UseB2=F ITyADJ=14
 ICtDFT=  3500011 ScaDFX=  1.000000  1.000000  1.000000  1.000000
 FoFCou: FMM=F IPFlag=           0 FMFlag=      100000 FMFlg1=           0
         NFxFlg=           0 DoJE=T BraDBF=F KetDBF=T FulRan=T
         wScrn=  0.000000 ICntrl=     500 IOpCl=  0 I1Cent=   200000004 NGrid=           0
         NMat0=    1 NMatS0=      1 NMatT0=    0 NMatD0=    1 NMtDS0=    0 NMtDT0=    0
 Petite list used in FoFCou.
 Harris En= -692.030356772856    
 JPrj=0 DoOrth=F DoCkMO=F.
 Initial guess orbital symmetries:
       Occupied  (A) (B) (B) (A) (B) (A) (B) (A) (B) (A) (B) (A)
                 (A) (B) (B) (A) (A) (B) (A) (B) (A) (B) (A) (B)
                 (A) (B) (B) (A) (A) (B) (A) (B) (B) (A) (A) (B)
                 (A) (B) (A) (B) (A) (B) (A) (B) (A) (B) (A) (B)
                 (A) (B) (A) (B) (A) (B) (A) (B) (A)
       Virtual   (B) (A) (B) (A) (A) (B) (A) (B) (A) (B) (A) (B)
                 (A) (B) (A) (B) (B) (A) (B) (A) (B) (A) (B) (A)
                 (B) (A) (B) (A) (B) (A) (B) (A) (A) (B) (A) (B)
                 (B) (A) (A) (B) (B) (A) (A) (B) (A) (B) (B) (A)
                 (A) (B) (B) (A) (A) (B) (A) (B) (B) (A) (B) (A)
                 (A) (B) (B) (B) (A) (A) (B) (B) (A) (B) (A) (A)
                 (B) (A) (B) (B) (A) (A) (B) (A) (B) (A) (A) (B)
                 (B) (A) (B) (B) (A) (A) (B) (A) (A) (B) (B) (A)
                 (B) (A) (A) (B) (B) (A) (B) (B) (A) (B) (A) (A)
                 (A) (A) (B) (A) (B) (B) (A) (B) (B) (B) (B) (A)
                 (A) (A) (B) (A) (B) (B) (A) (B) (A) (A) (A) (B)
                 (A) (B) (B) (A) (A) (B) (A) (B) (A) (B) (A) (B)
                 (A) (A) (B) (B) (B) (A) (B) (A) (B) (A) (B) (B)
                 (A) (B) (A) (B) (A) (A) (B) (A) (B) (A) (B) (B)
                 (A) (A) (B) (A) (B) (A) (A) (B) (B) (A) (A) (B)
                 (B) (A) (B) (A) (B) (A) (B) (B) (A) (B) (A) (A)
                 (B) (B) (A) (A) (B) (B) (A) (A) (B) (A) (B) (A)
                 (B) (A) (B) (A) (B) (A) (B) (A) (A) (B) (B) (A)
                 (B) (A) (B) (A) (B) (A) (B) (A) (B) (B) (A) (A)
                 (B) (B) (A) (A) (B) (A) (B) (A) (B) (A) (B) (A)
                 (A) (B) (B) (B) (A) (A) (A) (B) (A) (B) (A) (B)
                 (B) (A) (A) (B) (A) (B) (B) (B) (A) (A) (B) (A)
                 (A) (B) (A) (B) (A) (B) (A) (B) (A) (B) (A) (B)
                 (B) (A) (B) (A) (B) (A) (A) (B) (B) (A) (A) (B)
                 (B) (A) (B) (A) (B) (A) (B) (A) (B) (A) (B) (A)
                 (B) (A) (B) (A) (A) (B) (A) (B) (B) (A) (B) (B)
                 (A) (A) (B) (A) (B) (A) (A) (B) (B) (A) (B) (A)
                 (B) (A) (B) (A) (B) (A) (A) (B) (B) (A) (B) (A)
                 (A) (B) (B) (B) (A) (A) (B) (B) (A) (A) (B) (A)
                 (A) (B) (B) (A) (A) (B) (B) (A) (A) (B) (A) (B)
                 (A) (B) (B) (A) (B) (A) (A) (B) (A) (B) (A) (B)
                 (A) (B) (B) (B) (A) (A) (B) (A) (B) (A) (B) (A)
                 (B) (A) (B) (A) (B) (A) (B) (B) (A) (A) (A) (B)
                 (B) (B) (A) (B) (A) (A) (A) (B) (B) (B) (A) (A)
                 (A) (B) (B) (A) (B) (A) (A) (B) (B) (A) (A) (B)
                 (B) (A) (B) (B) (A) (B) (A) (A) (A) (B) (A) (B)
                 (A) (B) (A) (B) (B) (A) (B) (A) (B) (A) (B) (A)
                 (B) (A) (B) (A) (B) (A) (A) (B) (B) (A) (B) (A)
                 (A) (A) (B) (A) (B) (A) (B) (B) (B) (A) (A) (B)
                 (B) (A) (B) (A) (A) (B) (B) (A) (A) (B) (B) (A)
                 (A) (B) (A) (B) (B) (A) (B) (A) (B) (A) (B) (A)
                 (B) (B) (A) (A) (B) (A) (B) (A) (A) (B) (A) (B)
                 (B) (A) (B) (A) (B) (A) (B) (B) (A) (A) (B) (B)
                 (A) (B) (A) (A) (A) (B) (B) (B) (A) (A) (B) (A)
                 (B) (A) (B) (B) (A) (B) (A) (B) (A) (A) (B) (A)
                 (B) (A) (B) (A) (B) (A) (A) (B) (A) (B) (A) (B)
                 (A) (B) (A) (B) (B) (A) (B) (A) (A) (B) (B) (A)
                 (B) (A) (A) (B) (A) (B) (A) (B) (A) (B) (A) (B)
                 (A) (B) (B) (A) (B) (A) (B) (A) (B) (B) (A) (A)
                 (B) (A) (B) (A) (B) (B) (A) (A) (B) (A) (B) (B)
                 (A) (B) (A) (A) (B) (B) (A) (A) (B) (A) (B) (A)
                 (B) (A) (B) (A) (B) (A) (B) (A) (B) (A) (B) (A)
                 (B) (A) (B) (A) (B) (A) (B) (A) (B) (B) (A)
 The electronic state of the initial guess is 1-A.
 Leave Link  401 at Fri May 17 10:27:29 2024, MaxMem=  6291456000 cpu:        54.2
 (Enter /home/madghost/g09/l502.exe)
 Closed shell SCF:
 Using DIIS extrapolation, IDIIS=  1040.
 Integral symmetry usage will be decided dynamically.
 IVT=     1897486 IEndB=     1897486 NGot=  6291456000 MDV=  6290193737
 LenX=  6290193737 LenY=  6289575155
 Requested convergence on RMS density matrix=1.00D-08 within 128 cycles.
 Requested convergence on MAX density matrix=1.00D-06.
 Requested convergence on             energy=1.00D-06.
 No special actions if energy rises.
 Fock matrices will be formed incrementally for  20 cycles.
 Integral accuracy reduced to 1.0D-05 until final iterations.

 Cycle   1  Pass 0  IDiag  1:
 FoFJK:  IHMeth= 1 ICntrl=       0 DoSepK=F KAlg= 0 I1Cent=   0 FoldK=F
 IRaf= 760000000 NMat=   1 IRICut=       1 DoRegI=T DoRafI=F ISym2E= 1.
 FoFCou: FMM=F IPFlag=           0 FMFlag=      100000 FMFlg1=           0
         NFxFlg=           0 DoJE=F BraDBF=F KetDBF=F FulRan=T
         wScrn=  0.000000 ICntrl=       0 IOpCl=  0 I1Cent=           0 NGrid=           0
         NMat0=    1 NMatS0=      1 NMatT0=    0 NMatD0=    1 NMtDS0=    0 NMtDT0=    0
 Petite list used in FoFCou.
 E= -691.420670507784    
 DIIS: error= 2.51D-02 at cycle   1 NSaved=   1.
 NSaved= 1 IEnMin= 1 EnMin= -691.420670507784     IErMin= 1 ErrMin= 2.51D-02
 ErrMax= 2.51D-02  0.00D+00 EMaxC= 1.00D-01 BMatC= 3.94D-01 BMatP= 3.94D-01
 IDIUse=3 WtCom= 7.49D-01 WtEn= 2.51D-01
 Coeff-Com:  0.100D+01
 Coeff-En:   0.100D+01
 Coeff:      0.100D+01
 Gap=     0.258 Goal=   None    Shift=    0.000
 GapD=    0.258 DampG=1.000 DampE=0.500 DampFc=0.5000 IDamp=-1.
 Damping current iteration by 5.00D-01
 RMSDP=5.34D-03 MaxDP=3.35D-01              OVMax= 2.02D-01

 Cycle   2  Pass 0  IDiag  1:
 RMSU=  2.67D-03    CP:  1.01D+00
 E= -691.590170018584     Delta-E=       -0.169499510800 Rises=F Damp=T
 DIIS: error= 5.96D-03 at cycle   2 NSaved=   2.
 NSaved= 2 IEnMin= 2 EnMin= -691.590170018584     IErMin= 2 ErrMin= 5.96D-03
 ErrMax= 5.96D-03  0.00D+00 EMaxC= 1.00D-01 BMatC= 2.81D-02 BMatP= 3.94D-01
 IDIUse=3 WtCom= 9.40D-01 WtEn= 5.96D-02
 Coeff-Com: -0.104D-01 0.101D+01
 Coeff-En:   0.465D-01 0.953D+00
 Coeff:     -0.705D-02 0.101D+01
 Gap=     0.268 Goal=   None    Shift=    0.000
 RMSDP=2.36D-03 MaxDP=1.10D-01 DE=-1.69D-01 OVMax= 1.40D-01

 Cycle   3  Pass 0  IDiag  1:
 RMSU=  1.09D-03    CP:  1.04D+00  1.78D+00
 E= -691.773729051989     Delta-E=       -0.183559033405 Rises=F Damp=F
 DIIS: error= 6.64D-03 at cycle   3 NSaved=   3.
 NSaved= 3 IEnMin= 3 EnMin= -691.773729051989     IErMin= 2 ErrMin= 5.96D-03
 ErrMax= 6.64D-03  0.00D+00 EMaxC= 1.00D-01 BMatC= 1.75D-02 BMatP= 2.81D-02
 IDIUse=3 WtCom= 9.34D-01 WtEn= 6.64D-02
 Coeff-Com: -0.695D-01 0.456D+00 0.613D+00
 Coeff-En:   0.000D+00 0.000D+00 0.100D+01
 Coeff:     -0.649D-01 0.426D+00 0.639D+00
 Gap=     0.232 Goal=   None    Shift=    0.000
 RMSDP=5.17D-04 MaxDP=3.33D-02 DE=-1.84D-01 OVMax= 6.53D-02

 Cycle   4  Pass 0  IDiag  1:
 RMSU=  5.05D-04    CP:  1.03D+00  1.74D+00  1.02D+00
 E= -691.784706044788     Delta-E=       -0.010976992799 Rises=F Damp=F
 DIIS: error= 5.04D-03 at cycle   4 NSaved=   4.
 NSaved= 4 IEnMin= 4 EnMin= -691.784706044788     IErMin= 4 ErrMin= 5.04D-03
 ErrMax= 5.04D-03  0.00D+00 EMaxC= 1.00D-01 BMatC= 6.88D-03 BMatP= 1.75D-02
 IDIUse=3 WtCom= 9.50D-01 WtEn= 5.04D-02
 Coeff-Com: -0.422D-01 0.153D+00 0.414D+00 0.475D+00
 Coeff-En:   0.000D+00 0.000D+00 0.305D+00 0.695D+00
 Coeff:     -0.401D-01 0.146D+00 0.409D+00 0.486D+00
 Gap=     0.224 Goal=   None    Shift=    0.000
 RMSDP=1.29D-03 MaxDP=7.10D-02 DE=-1.10D-02 OVMax= 2.84D-02

 Cycle   5  Pass 0  IDiag  1:
 RMSU=  4.23D-04    CP:  1.04D+00  2.18D+00  1.32D+00  8.98D-01
 E= -691.791784375567     Delta-E=       -0.007078330780 Rises=F Damp=F
 DIIS: error= 6.50D-04 at cycle   5 NSaved=   5.
 NSaved= 5 IEnMin= 5 EnMin= -691.791784375567     IErMin= 5 ErrMin= 6.50D-04
 ErrMax= 6.50D-04  0.00D+00 EMaxC= 1.00D-01 BMatC= 2.09D-04 BMatP= 6.88D-03
 IDIUse=3 WtCom= 9.94D-01 WtEn= 6.50D-03
 Coeff-Com: -0.116D-01 0.274D-01 0.120D+00 0.218D+00 0.645D+00
 Coeff-En:   0.000D+00 0.000D+00 0.000D+00 0.000D+00 0.100D+01
 Coeff:     -0.115D-01 0.273D-01 0.120D+00 0.217D+00 0.648D+00
 Gap=     0.224 Goal=   None    Shift=    0.000
 RMSDP=2.44D-03 MaxDP=1.23D-01 DE=-7.08D-03 OVMax= 4.02D-03

 Cycle   6  Pass 0  IDiag  1:
 RMSU=  2.89D-04    CP:  1.07D+00  2.99D+00  1.95D+00  1.54D+00  2.78D+00
 E= -691.792005729958     Delta-E=       -0.000221354390 Rises=F Damp=F
 DIIS: error= 5.00D-04 at cycle   6 NSaved=   6.
 NSaved= 6 IEnMin= 6 EnMin= -691.792005729958     IErMin= 6 ErrMin= 5.00D-04
 ErrMax= 5.00D-04  0.00D+00 EMaxC= 1.00D-01 BMatC= 2.32D-05 BMatP= 2.09D-04
 IDIUse=3 WtCom= 9.95D-01 WtEn= 5.00D-03
 Coeff-Com: -0.536D-02 0.106D-01 0.563D-01 0.111D+00 0.378D+00 0.450D+00
 Coeff-En:   0.000D+00 0.000D+00 0.000D+00 0.000D+00 0.000D+00 0.100D+01
 Coeff:     -0.534D-02 0.105D-01 0.560D-01 0.110D+00 0.376D+00 0.452D+00
 Gap=     0.122 Goal=   None    Shift=    0.000
 RMSDP=7.99D-03 MaxDP=4.16D-01 DE=-2.21D-04 OVMax= 2.26D-03

 Cycle   7  Pass 0  IDiag  1:
 RMSU=  7.57D-03    CP:  1.14D+00  3.00D+00  3.00D+00  3.00D+00  3.00D+00
                    CP:  3.00D+00
 E= -691.792005690527     Delta-E=        0.000000039430 Rises=F Damp=F
 DIIS: error= 9.65D-04 at cycle   7 NSaved=   7.
 NSaved= 7 IEnMin= 6 EnMin= -691.792005729958     IErMin= 6 ErrMin= 5.00D-04
 ErrMax= 9.65D-04  0.00D+00 EMaxC= 1.00D-01 BMatC= 3.05D-05 BMatP= 2.32D-05
 IDIUse=3 WtCom= 9.95D-01 WtEn= 5.00D-03
 Rare condition: small coef for last iteration:  0.000D+00
 Coeff-Com: -0.610D-02 0.117D-01 0.639D-01 0.127D+00 0.442D+00 0.592D+00
 Coeff-Com: -0.232D+00
 Coeff-En:   0.000D+00 0.000D+00 0.000D+00 0.000D+00 0.000D+00 0.000D+00
 Coeff-En:   0.100D+01
 Coeff:     -0.610D-02 0.117D-01 0.639D-01 0.127D+00 0.442D+00 0.592D+00
 Coeff:     -0.232D+00
 Gap=     0.173 Goal=   None    Shift=    0.000
 RMSDP=6.52D-03 MaxDP=3.41D-01 DE= 3.94D-08 OVMax= 1.79D-03

 Cycle   8  Pass 0  IDiag  1:
 RMSU=  2.75D-04    CP:  1.08D+00  3.00D+00  2.32D+00  1.95D+00  3.00D+00
                    CP:  1.87D+00  1.73D-01
 E= -691.792010193950     Delta-E=       -0.000004503422 Rises=F Damp=F
 DIIS: error= 4.87D-04 at cycle   8 NSaved=   8.
 NSaved= 8 IEnMin= 8 EnMin= -691.792010193950     IErMin= 8 ErrMin= 4.87D-04
 ErrMax= 4.87D-04  0.00D+00 EMaxC= 1.00D-01 BMatC= 8.55D-06 BMatP= 2.32D-05
 IDIUse=3 WtCom= 9.95D-01 WtEn= 4.87D-03
 Coeff-Com: -0.234D-02 0.392D-02 0.250D-01 0.515D-01 0.196D+00 0.349D+00
 Coeff-Com: -0.644D+00 0.102D+01
 Coeff-En:   0.000D+00 0.000D+00 0.000D+00 0.000D+00 0.000D+00 0.314D+00
 Coeff-En:   0.000D+00 0.686D+00
 Coeff:     -0.233D-02 0.390D-02 0.249D-01 0.513D-01 0.195D+00 0.349D+00
 Coeff:     -0.641D+00 0.102D+01
 Gap=     0.164 Goal=   None    Shift=    0.000
 RMSDP=4.96D-04 MaxDP=2.82D-02 DE=-4.50D-06 OVMax= 5.82D-04

 Cycle   9  Pass 0  IDiag  1:
 RMSU=  1.34D-04    CP:  1.08D+00  3.00D+00  2.45D+00  2.17D+00  3.00D+00
                    CP:  2.25D+00  2.27D-01  1.44D+00
 E= -691.791996687392     Delta-E=        0.000013506557 Rises=F Damp=F
 DIIS: error= 4.03D-04 at cycle   9 NSaved=   9.
 NSaved= 9 IEnMin= 8 EnMin= -691.792010193950     IErMin= 9 ErrMin= 4.03D-04
 ErrMax= 4.03D-04  0.00D+00 EMaxC= 1.00D-01 BMatC= 6.68D-06 BMatP= 8.55D-06
 IDIUse=3 WtCom= 9.96D-01 WtEn= 4.03D-03
 Rare condition: small coef for last iteration:  0.000D+00
 Coeff-Com: -0.662D-03 0.102D-02 0.735D-02 0.150D-01 0.626D-01 0.128D+00
 Coeff-Com: -0.751D+00 0.849D+00 0.689D+00
 Coeff-En:   0.000D+00 0.000D+00 0.000D+00 0.000D+00 0.000D+00 0.000D+00
 Coeff-En:   0.000D+00 0.000D+00 0.100D+01
 Coeff:     -0.662D-03 0.102D-02 0.735D-02 0.150D-01 0.626D-01 0.128D+00
 Coeff:     -0.751D+00 0.849D+00 0.689D+00
 Gap=     0.154 Goal=   None    Shift=    0.000
 RMSDP=8.01D-04 MaxDP=4.42D-02 DE= 1.35D-05 OVMax= 5.53D-04

 Cycle  10  Pass 0  IDiag  1:
 RMSU=  1.25D-04    CP:  1.09D+00  3.00D+00  2.67D+00  2.48D+00  3.00D+00
                    CP:  2.65D+00  3.21D-01  1.83D+00  1.89D+00
 E= -691.791986354698     Delta-E=        0.000010332694 Rises=F Damp=F
 DIIS: error= 3.61D-04 at cycle  10 NSaved=  10.
 NSaved=10 IEnMin= 8 EnMin= -691.792010193950     IErMin=10 ErrMin= 3.61D-04
 ErrMax= 3.61D-04  0.00D+00 EMaxC= 1.00D-01 BMatC= 5.30D-06 BMatP= 6.68D-06
 IDIUse=3 WtCom= 9.96D-01 WtEn= 3.61D-03
 Rare condition: small coef for last iteration:  0.000D+00
 Coeff-Com: -0.101D-02 0.191D-02 0.108D-01 0.217D-01 0.780D-01 0.127D+00
 Coeff-Com: -0.666D+00 0.447D+00 0.190D+00 0.791D+00
 Coeff-En:   0.000D+00 0.000D+00 0.000D+00 0.000D+00 0.000D+00 0.000D+00
 Coeff-En:   0.000D+00 0.000D+00 0.000D+00 0.100D+01
 Coeff:     -0.101D-02 0.191D-02 0.108D-01 0.217D-01 0.780D-01 0.127D+00
 Coeff:     -0.666D+00 0.447D+00 0.190D+00 0.791D+00
 Gap=     0.156 Goal=   None    Shift=    0.000
 RMSDP=2.71D-04 MaxDP=1.59D-02 DE= 1.03D-05 OVMax= 1.92D-04

 Cycle  11  Pass 0  IDiag  1:
 RMSU=  7.64D-05    CP:  1.09D+00  3.00D+00  2.65D+00  2.53D+00  3.00D+00
                    CP:  2.47D+00  2.92D-01  1.70D+00  2.65D+00  1.64D+00
 E= -691.791977800547     Delta-E=        0.000008554151 Rises=F Damp=F
 DIIS: error= 3.18D-04 at cycle  11 NSaved=  11.
 NSaved=11 IEnMin= 8 EnMin= -691.792010193950     IErMin=11 ErrMin= 3.18D-04
 ErrMax= 3.18D-04  0.00D+00 EMaxC= 1.00D-01 BMatC= 3.85D-06 BMatP= 5.30D-06
 IDIUse=3 WtCom= 9.97D-01 WtEn= 3.18D-03
 Rare condition: small coef for last iteration:  0.000D+00
 Coeff-Com: -0.677D-03 0.125D-02 0.723D-02 0.146D-01 0.525D-01 0.113D+00
 Coeff-Com: -0.495D+00 0.289D+00-0.390D+00-0.102D+00 0.151D+01
 Coeff-En:   0.000D+00 0.000D+00 0.000D+00 0.000D+00 0.000D+00 0.000D+00
 Coeff-En:   0.000D+00 0.000D+00 0.000D+00 0.000D+00 0.100D+01
 Coeff:     -0.677D-03 0.125D-02 0.723D-02 0.146D-01 0.525D-01 0.113D+00
 Coeff:     -0.495D+00 0.289D+00-0.390D+00-0.102D+00 0.151D+01
 Gap=     0.153 Goal=   None    Shift=    0.000
 RMSDP=4.55D-04 MaxDP=2.68D-02 DE= 8.55D-06 OVMax= 5.46D-04

 Cycle  12  Pass 0  IDiag  1:
 RMSU=  1.63D-04    CP:  1.09D+00  3.00D+00  2.79D+00  2.81D+00  3.00D+00
                    CP:  2.63D+00  3.30D-01  1.87D+00  3.00D+00  2.95D+00
                    CP:  2.44D+00
 E= -691.791966140959     Delta-E=        0.000011659588 Rises=F Damp=F
 DIIS: error= 2.52D-04 at cycle  12 NSaved=  12.
 NSaved=12 IEnMin= 8 EnMin= -691.792010193950     IErMin=12 ErrMin= 2.52D-04
 ErrMax= 2.52D-04  0.00D+00 EMaxC= 1.00D-01 BMatC= 2.74D-06 BMatP= 3.85D-06
 IDIUse=3 WtCom= 9.97D-01 WtEn= 2.52D-03
 Rare condition: small coef for last iteration:  0.000D+00
 Coeff-Com: -0.304D-03 0.541D-03 0.341D-02 0.694D-02 0.259D-01 0.751D-01
 Coeff-Com: -0.388D+00 0.272D+00-0.365D+00-0.528D+00 0.879D+00 0.102D+01
 Coeff-En:   0.000D+00 0.000D+00 0.000D+00 0.000D+00 0.000D+00 0.000D+00
 Coeff-En:   0.000D+00 0.000D+00 0.000D+00 0.000D+00 0.000D+00 0.100D+01
 Coeff:     -0.304D-03 0.541D-03 0.341D-02 0.694D-02 0.259D-01 0.751D-01
 Coeff:     -0.388D+00 0.272D+00-0.365D+00-0.528D+00 0.879D+00 0.102D+01
 Gap=     0.145 Goal=   None    Shift=    0.000
 RMSDP=5.74D-04 MaxDP=3.72D-02 DE= 1.17D-05 OVMax= 6.31D-04

 Problem detected with inexpensive integrals.
 Switching to full accuracy and repeating last cycle.
 Cycle  13  Pass 1  IDiag  1:
 E= -691.791740075184     Delta-E=        0.000226065775 Rises=F Damp=F
 DIIS: error= 2.25D-03 at cycle   1 NSaved=   1.
 NSaved= 1 IEnMin= 1 EnMin= -691.791740075184     IErMin= 1 ErrMin= 2.25D-03
 ErrMax= 2.25D-03  0.00D+00 EMaxC= 1.00D-01 BMatC= 1.82D-04 BMatP= 1.82D-04
 IDIUse=3 WtCom= 9.77D-01 WtEn= 2.25D-02
 Coeff-Com:  0.100D+01
 Coeff-En:   0.100D+01
 Coeff:      0.100D+01
 Gap=     0.224 Goal=   None    Shift=    0.000
 GapD=    0.224 DampG=1.000 DampE=1.000 DampFc=1.0000 IDamp=-1.
 RMSDP=1.06D-02 MaxDP=5.35D-01 DE= 2.26D-04 OVMax= 4.33D-03

 Cycle  14  Pass 1  IDiag  1:
 RMSU=  4.61D-03    CP:  2.44D-01
 E= -691.791946435775     Delta-E=       -0.000206360591 Rises=F Damp=F
 DIIS: error= 4.12D-05 at cycle   2 NSaved=   2.
 NSaved= 2 IEnMin= 2 EnMin= -691.791946435775     IErMin= 2 ErrMin= 4.12D-05
 ErrMax= 4.12D-05  0.00D+00 EMaxC= 1.00D-01 BMatC= 2.26D-07 BMatP= 1.82D-04
 IDIUse=1 WtCom= 1.00D+00 WtEn= 0.00D+00
 Coeff-Com: -0.145D-01 0.101D+01
 Coeff:     -0.145D-01 0.101D+01
 Gap=     0.224 Goal=   None    Shift=    0.000
 RMSDP=1.07D-04 MaxDP=3.90D-03 DE=-2.06D-04 OVMax= 2.08D-04

 Cycle  15  Pass 1  IDiag  1:
 RMSU=  5.87D-05    CP:  2.37D-01  1.01D+00
 E= -691.791946426612     Delta-E=        0.000000009163 Rises=F Damp=F
 DIIS: error= 1.84D-05 at cycle   3 NSaved=   3.
 NSaved= 3 IEnMin= 2 EnMin= -691.791946435775     IErMin= 3 ErrMin= 1.84D-05
 ErrMax= 1.84D-05  0.00D+00 EMaxC= 1.00D-01 BMatC= 3.62D-07 BMatP= 2.26D-07
 IDIUse=1 WtCom= 1.00D+00 WtEn= 0.00D+00
 Coeff-Com: -0.941D-02 0.595D+00 0.414D+00
 Coeff:     -0.941D-02 0.595D+00 0.414D+00
 Gap=     0.224 Goal=   None    Shift=    0.000
 RMSDP=1.90D-06 MaxDP=1.18D-04 DE= 9.16D-09 OVMax= 1.15D-04

 Cycle  16  Pass 1  IDiag  1:
 RMSU=  1.06D-06    CP:  2.37D-01  1.01D+00  1.01D+00
 E= -691.791946711746     Delta-E=       -0.000000285134 Rises=F Damp=F
 DIIS: error= 3.07D-06 at cycle   4 NSaved=   4.
 NSaved= 4 IEnMin= 4 EnMin= -691.791946711746     IErMin= 4 ErrMin= 3.07D-06
 ErrMax= 3.07D-06  0.00D+00 EMaxC= 1.00D-01 BMatC= 3.95D-09 BMatP= 2.26D-07
 IDIUse=1 WtCom= 1.00D+00 WtEn= 0.00D+00
 Coeff-Com: -0.114D-02 0.647D-01 0.108D+00 0.828D+00
 Coeff:     -0.114D-02 0.647D-01 0.108D+00 0.828D+00
 Gap=     0.224 Goal=   None    Shift=    0.000
 RMSDP=1.33D-06 MaxDP=4.92D-05 DE=-2.85D-07 OVMax= 2.66D-05

 Cycle  17  Pass 1  IDiag  1:
 RMSU=  4.28D-07    CP:  2.37D-01  1.01D+00  1.03D+00  1.23D+00
 E= -691.791946713726     Delta-E=       -0.000000001980 Rises=F Damp=F
 DIIS: error= 2.17D-06 at cycle   5 NSaved=   5.
 NSaved= 5 IEnMin= 5 EnMin= -691.791946713726     IErMin= 5 ErrMin= 2.17D-06
 ErrMax= 2.17D-06  0.00D+00 EMaxC= 1.00D-01 BMatC= 1.81D-09 BMatP= 3.95D-09
 IDIUse=1 WtCom= 1.00D+00 WtEn= 0.00D+00
 Coeff-Com:  0.108D-03-0.111D-01 0.293D-01 0.490D+00 0.492D+00
 Coeff:      0.108D-03-0.111D-01 0.293D-01 0.490D+00 0.492D+00
 Gap=     0.224 Goal=   None    Shift=    0.000
 RMSDP=2.01D-07 MaxDP=7.18D-06 DE=-1.98D-09 OVMax= 1.34D-05

 Cycle  18  Pass 1  IDiag  1:
 RMSU=  7.36D-08    CP:  2.37D-01  1.01D+00  1.03D+00  1.25D+00  1.14D+00
 E= -691.791946715540     Delta-E=       -0.000000001814 Rises=F Damp=F
 DIIS: error= 4.01D-07 at cycle   6 NSaved=   6.
 NSaved= 6 IEnMin= 6 EnMin= -691.791946715540     IErMin= 6 ErrMin= 4.01D-07
 ErrMax= 4.01D-07  0.00D+00 EMaxC= 1.00D-01 BMatC= 6.79D-11 BMatP= 1.81D-09
 IDIUse=1 WtCom= 1.00D+00 WtEn= 0.00D+00
 Coeff-Com:  0.109D-03-0.876D-02 0.987D-02 0.214D+00 0.254D+00 0.531D+00
 Coeff:      0.109D-03-0.876D-02 0.987D-02 0.214D+00 0.254D+00 0.531D+00
 Gap=     0.224 Goal=   None    Shift=    0.000
 RMSDP=3.51D-08 MaxDP=2.40D-06 DE=-1.81D-09 OVMax= 3.40D-06

 Cycle  19  Pass 1  IDiag  1:
 RMSU=  1.45D-08    CP:  2.37D-01  1.01D+00  1.03D+00  1.27D+00  1.17D+00
                    CP:  9.41D-01
 E= -691.791946715624     Delta-E=       -0.000000000084 Rises=F Damp=F
 DIIS: error= 1.35D-07 at cycle   7 NSaved=   7.
 NSaved= 7 IEnMin= 7 EnMin= -691.791946715624     IErMin= 7 ErrMin= 1.35D-07
 ErrMax= 1.35D-07  0.00D+00 EMaxC= 1.00D-01 BMatC= 1.01D-11 BMatP= 6.79D-11
 IDIUse=1 WtCom= 1.00D+00 WtEn= 0.00D+00
 Coeff-Com:  0.556D-04-0.421D-02 0.294D-02 0.778D-01 0.101D+00 0.318D+00
 Coeff-Com:  0.505D+00
 Coeff:      0.556D-04-0.421D-02 0.294D-02 0.778D-01 0.101D+00 0.318D+00
 Coeff:      0.505D+00
 Gap=     0.224 Goal=   None    Shift=    0.000
 RMSDP=8.56D-09 MaxDP=4.43D-07 DE=-8.39D-11 OVMax= 9.98D-07

 SCF Done:  E(RPBE1PBE) =  -691.791946716     A.U. after   19 cycles
            NFock= 19  Conv=0.86D-08     -V/T= 2.0047
 KE= 6.885817273389D+02 PE=-3.613327493464D+03 EE= 1.231904742651D+03
 Leave Link  502 at Fri May 17 10:31:39 2024, MaxMem=  6291456000 cpu:      6005.2
 (Enter /home/madghost/g09/l601.exe)
 Copying SCF densities to generalized density rwf, IOpCl= 0 IROHF=0.

 **********************************************************************

            Population analysis using the SCF density.

 **********************************************************************

 Orbital symmetries:
       Occupied  (A) (B) (B) (A) (A) (B) (B) (A) (B) (A) (B) (A)
                 (B) (A) (B) (A) (A) (B) (A) (B) (A) (B) (A) (B)
                 (A) (B) (B) (A) (A) (B) (A) (B) (B) (A) (A) (B)
                 (A) (B) (A) (B) (A) (B) (B) (A) (A) (A) (B) (B)
                 (A) (B) (A) (B) (A) (B) (A) (B) (A)
       Virtual   (B) (A) (B) (A) (A) (B) (A) (B) (A) (B) (A) (B)
                 (B) (A) (A) (B) (B) (A) (B) (A) (B) (A) (A) (B)
                 (B) (A) (A) (A) (B) (B) (A) (B) (B) (A) (A) (B)
                 (A) (B) (A) (B) (A) (B) (A) (B) (A) (B) (A) (B)
                 (A) (B) (A) (B) (B) (A) (A) (A) (B) (B) (B) (A)
                 (A) (B) (B) (A) (B) (A) (B) (B) (A) (B) (A) (A)
                 (B) (A) (B) (A) (B) (A) (B) (A) (A) (B) (B) (A)
                 (B) (A) (B) (B) (A) (A) (B) (A) (B) (A) (B) (A)
                 (B) (A) (B) (A) (B) (A) (B) (A) (A) (B) (A) (B)
                 (A) (A) (B) (B) (B) (A) (B) (A) (B) (A) (B) (B)
                 (A) (A) (B) (B) (A) (B) (A) (A) (B) (A) (A) (B)
                 (A) (B) (A) (B) (A) (B) (B) (A) (A) (B) (B) (A)
                 (A) (A) (B) (B) (A) (B) (B) (A) (B) (A) (B) (B)
                 (A) (A) (B) (B) (A) (A) (B) (B) (A) (A) (B) (B)
                 (A) (A) (B) (A) (B) (A) (B) (A) (A) (B) (B) (A)
                 (B) (A) (A) (B) (B) (A) (B) (B) (A) (B) (A) (A)
                 (B) (A) (B) (A) (B) (B) (A) (A) (B) (A) (B) (B)
                 (A) (B) (A) (A) (B) (A) (B) (A) (B) (A) (B) (A)
                 (B) (A) (B) (B) (A) (A) (B) (B) (A) (A) (B) (A)
                 (B) (B) (A) (B) (A) (A) (B) (A) (B) (A) (B) (A)
                 (A) (B) (B) (B) (A) (A) (A) (B) (A) (B) (A) (B)
                 (B) (A) (A) (B) (A) (B) (B) (B) (A) (B) (A) (A)
                 (B) (A) (A) (B) (A) (B) (B) (A) (A) (B) (A) (B)
                 (B) (A) (B) (A) (A) (B) (A) (B) (B) (A) (B) (A)
                 (B) (A) (B) (A) (B) (B) (A) (A) (B) (A) (B) (B)
                 (A) (A) (B) (A) (A) (B) (B) (A) (B) (A) (B) (B)
                 (A) (A) (B) (A) (B) (A) (A) (B) (B) (A) (B) (A)
                 (B) (A) (B) (A) (B) (A) (A) (B) (B) (A) (B) (A)
                 (A) (B) (B) (A) (B) (A) (B) (B) (A) (A) (B) (A)
                 (B) (A) (A) (B) (A) (B) (B) (A) (A) (A) (B) (B)
                 (A) (B) (B) (A) (B) (A) (A) (B) (A) (B) (A) (B)
                 (B) (A) (B) (B) (A) (A) (B) (A) (B) (A) (B) (A)
                 (A) (B) (B) (A) (B) (A) (B) (B) (A) (A) (A) (B)
                 (B) (B) (A) (B) (A) (A) (A) (B) (B) (B) (A) (B)
                 (A) (A) (A) (B) (B) (A) (B) (A) (A) (B) (A) (B)
                 (B) (A) (B) (B) (A) (A) (A) (B) (A) (B) (A) (B)
                 (B) (A) (B) (A) (B) (A) (B) (A) (B) (A) (B) (A)
                 (B) (B) (A) (A) (A) (B) (B) (A) (B) (A) (B) (A)
                 (A) (A) (B) (A) (A) (B) (B) (B) (B) (A) (B) (A)
                 (A) (B) (B) (A) (A) (B) (B) (A) (B) (A) (A) (B)
                 (A) (A) (B) (B) (B) (A) (B) (B) (A) (A) (B) (A)
                 (B) (A) (B) (A) (B) (A) (B) (A) (A) (B) (B) (A)
                 (B) (A) (B) (A) (B) (A) (B) (B) (A) (A) (B) (A)
                 (B) (B) (A) (B) (A) (A) (B) (A) (B) (A) (A) (B)
                 (B) (A) (B) (B) (A) (B) (A) (B) (A) (A) (B) (B)
                 (A) (A) (A) (B) (B) (A) (B) (A) (A) (B) (A) (B)
                 (A) (A) (B) (B) (A) (B) (A) (B) (A) (B) (B) (A)
                 (B) (A) (B) (A) (A) (A) (B) (B) (A) (B) (B) (A)
                 (B) (A) (B) (A) (B) (A) (B) (B) (A) (B) (A) (A)
                 (B) (A) (B) (A) (B) (B) (A) (A) (B) (A) (B) (B)
                 (A) (B) (A) (A) (B) (B) (A) (A) (B) (A) (B) (A)
                 (B) (A) (B) (A) (B) (A) (B) (A) (B) (A) (B) (A)
                 (B) (A) (B) (A) (B) (A) (B) (A) (B) (B) (A)
 The electronic state is 1-A.
 Alpha  occ. eigenvalues --  -19.24249 -19.24249 -10.28823 -10.28823 -10.28577
 Alpha  occ. eigenvalues --  -10.28550 -10.23002 -10.23002 -10.22804 -10.22804
 Alpha  occ. eigenvalues --  -10.22748 -10.22748 -10.22139 -10.22139 -10.21995
 Alpha  occ. eigenvalues --  -10.21995  -1.11400  -1.10064  -0.88577  -0.88314
 Alpha  occ. eigenvalues --   -0.81438  -0.77760  -0.77440  -0.77307  -0.74762
 Alpha  occ. eigenvalues --   -0.68678  -0.63570  -0.63243  -0.62500  -0.60010
 Alpha  occ. eigenvalues --   -0.57149  -0.54158  -0.52349  -0.51300  -0.50640
 Alpha  occ. eigenvalues --   -0.49494  -0.49366  -0.46697  -0.45867  -0.44852
 Alpha  occ. eigenvalues --   -0.43708  -0.43444  -0.42532  -0.41979  -0.39737
 Alpha  occ. eigenvalues --   -0.38491  -0.37748  -0.37612  -0.36784  -0.35890
 Alpha  occ. eigenvalues --   -0.34624  -0.33444  -0.33208  -0.27097  -0.27064
 Alpha  occ. eigenvalues --   -0.24185  -0.23437
 Alpha virt. eigenvalues --   -0.00991  -0.00961   0.00494   0.00595   0.04122
 Alpha virt. eigenvalues --    0.05878   0.06813   0.07968   0.08387   0.08734
 Alpha virt. eigenvalues --    0.09822   0.09945   0.10409   0.11093   0.11790
 Alpha virt. eigenvalues --    0.12053   0.12753   0.13264   0.13811   0.15944
 Alpha virt. eigenvalues --    0.16095   0.17080   0.18024   0.18431   0.18938
 Alpha virt. eigenvalues --    0.20252   0.21236   0.21450   0.21568   0.21885
 Alpha virt. eigenvalues --    0.22768   0.22781   0.23544   0.23833   0.24397
 Alpha virt. eigenvalues --    0.24798   0.24897   0.25494   0.26532   0.27053
 Alpha virt. eigenvalues --    0.27755   0.28258   0.29169   0.30292   0.30494
 Alpha virt. eigenvalues --    0.31224   0.31407   0.32242   0.33335   0.34161
 Alpha virt. eigenvalues --    0.34175   0.35396   0.35644   0.36250   0.36872
 Alpha virt. eigenvalues --    0.37668   0.37872   0.38552   0.38645   0.39456
 Alpha virt. eigenvalues --    0.39614   0.39711   0.41206   0.41777   0.42105
 Alpha virt. eigenvalues --    0.42600   0.42762   0.43123   0.43847   0.44417
 Alpha virt. eigenvalues --    0.44671   0.45329   0.45669   0.45921   0.46199
 Alpha virt. eigenvalues --    0.46566   0.47339   0.47769   0.49121   0.49128
 Alpha virt. eigenvalues --    0.50134   0.50390   0.50753   0.51052   0.51397
 Alpha virt. eigenvalues --    0.52465   0.52923   0.54530   0.54740   0.55351
 Alpha virt. eigenvalues --    0.56371   0.56516   0.58479   0.59319   0.61906
 Alpha virt. eigenvalues --    0.62756   0.64358   0.64810   0.65366   0.65465
 Alpha virt. eigenvalues --    0.66694   0.66933   0.67969   0.68473   0.68912
 Alpha virt. eigenvalues --    0.69247   0.69449   0.71037   0.71245   0.71754
 Alpha virt. eigenvalues --    0.72103   0.72928   0.74155   0.74371   0.75420
 Alpha virt. eigenvalues --    0.75876   0.76676   0.77006   0.78152   0.79172
 Alpha virt. eigenvalues --    0.80050   0.81608   0.82090   0.83261   0.83343
 Alpha virt. eigenvalues --    0.83780   0.84722   0.86410   0.86785   0.87460
 Alpha virt. eigenvalues --    0.88376   0.88461   0.90596   0.90615   0.92627
 Alpha virt. eigenvalues --    0.93665   0.95009   0.96107   0.96519   0.97314
 Alpha virt. eigenvalues --    0.98276   0.98869   0.99697   0.99782   1.00386
 Alpha virt. eigenvalues --    1.00859   1.01518   1.02861   1.03489   1.03677
 Alpha virt. eigenvalues --    1.04972   1.05520   1.05960   1.07363   1.08641
 Alpha virt. eigenvalues --    1.09155   1.10465   1.11988   1.12348   1.12943
 Alpha virt. eigenvalues --    1.13637   1.14410   1.14960   1.16376   1.16393
 Alpha virt. eigenvalues --    1.18107   1.18683   1.19546   1.20126   1.20910
 Alpha virt. eigenvalues --    1.21787   1.22893   1.23117   1.23318   1.24722
 Alpha virt. eigenvalues --    1.24941   1.26212   1.26450   1.28218   1.28583
 Alpha virt. eigenvalues --    1.29759   1.31335   1.31594   1.31881   1.32312
 Alpha virt. eigenvalues --    1.32980   1.33216   1.34523   1.34826   1.35285
 Alpha virt. eigenvalues --    1.35305   1.38230   1.38961   1.39757   1.39869
 Alpha virt. eigenvalues --    1.40326   1.40506   1.43159   1.43930   1.44651
 Alpha virt. eigenvalues --    1.45009   1.45861   1.46041   1.47169   1.47752
 Alpha virt. eigenvalues --    1.48851   1.48882   1.49831   1.51153   1.51818
 Alpha virt. eigenvalues --    1.53938   1.54415   1.54687   1.55865   1.56832
 Alpha virt. eigenvalues --    1.56839   1.57290   1.58142   1.59665   1.61033
 Alpha virt. eigenvalues --    1.61061   1.61631   1.62025   1.63043   1.64327
 Alpha virt. eigenvalues --    1.65796   1.67839   1.68214   1.69034   1.70191
 Alpha virt. eigenvalues --    1.70599   1.72911   1.72928   1.74006   1.75196
 Alpha virt. eigenvalues --    1.76284   1.76351   1.81164   1.81282   1.84652
 Alpha virt. eigenvalues --    1.85719   1.86203   1.88029   1.90172   1.90195
 Alpha virt. eigenvalues --    1.92637   1.93140   1.93347   1.95864   1.96626
 Alpha virt. eigenvalues --    1.97574   1.98912   2.00150   2.00513   2.01998
 Alpha virt. eigenvalues --    2.02193   2.04689   2.05804   2.07023   2.07555
 Alpha virt. eigenvalues --    2.07995   2.08702   2.08738   2.13854   2.17488
 Alpha virt. eigenvalues --    2.17567   2.19308   2.23701   2.24783   2.25191
 Alpha virt. eigenvalues --    2.27141   2.27216   2.29197   2.29306   2.30183
 Alpha virt. eigenvalues --    2.33038   2.34791   2.36458   2.37543   2.37763
 Alpha virt. eigenvalues --    2.38512   2.38519   2.39203   2.39894   2.43741
 Alpha virt. eigenvalues --    2.44649   2.46247   2.46557   2.51540   2.52268
 Alpha virt. eigenvalues --    2.56662   2.56736   2.57156   2.60183   2.60775
 Alpha virt. eigenvalues --    2.62532   2.63340   2.64308   2.65859   2.66667
 Alpha virt. eigenvalues --    2.66818   2.68530   2.69968   2.70727   2.73264
 Alpha virt. eigenvalues --    2.73962   2.74674   2.74894   2.75008   2.76636
 Alpha virt. eigenvalues --    2.76661   2.78664   2.78800   2.79236   2.79568
 Alpha virt. eigenvalues --    2.80332   2.81631   2.82310   2.84167   2.84350
 Alpha virt. eigenvalues --    2.84878   2.85033   2.86785   2.87150   2.88418
 Alpha virt. eigenvalues --    2.90193   2.91472   2.92503   2.92578   2.93176
 Alpha virt. eigenvalues --    2.93875   2.94911   2.95691   2.95720   2.97430
 Alpha virt. eigenvalues --    3.00307   3.01670   3.02377   3.03471   3.03578
 Alpha virt. eigenvalues --    3.03834   3.04363   3.04640   3.04845   3.04905
 Alpha virt. eigenvalues --    3.06157   3.06242   3.06486   3.07694   3.07805
 Alpha virt. eigenvalues --    3.08041   3.09076   3.10896   3.11445   3.12959
 Alpha virt. eigenvalues --    3.13707   3.14482   3.15330   3.15339   3.16038
 Alpha virt. eigenvalues --    3.16682   3.16822   3.18128   3.18558   3.18858
 Alpha virt. eigenvalues --    3.20011   3.20999   3.21117   3.22420   3.22674
 Alpha virt. eigenvalues --    3.23294   3.23966   3.25767   3.26052   3.27764
 Alpha virt. eigenvalues --    3.28018   3.28601   3.30638   3.30714   3.31261
 Alpha virt. eigenvalues --    3.32377   3.33455   3.33724   3.34040   3.34251
 Alpha virt. eigenvalues --    3.34283   3.35260   3.35771   3.36023   3.37050
 Alpha virt. eigenvalues --    3.37971   3.38392   3.39377   3.40136   3.40429
 Alpha virt. eigenvalues --    3.40776   3.42739   3.44177   3.44658   3.45645
 Alpha virt. eigenvalues --    3.47255   3.48252   3.49090   3.49702   3.50149
 Alpha virt. eigenvalues --    3.51258   3.51538   3.53823   3.53864   3.54699
 Alpha virt. eigenvalues --    3.55072   3.55124   3.57317   3.58343   3.59999
 Alpha virt. eigenvalues --    3.60106   3.62187   3.62248   3.64100   3.64834
 Alpha virt. eigenvalues --    3.66728   3.66976   3.68378   3.69553   3.70344
 Alpha virt. eigenvalues --    3.73738   3.75037   3.75187   3.76299   3.77163
 Alpha virt. eigenvalues --    3.78236   3.78391   3.78767   3.78780   3.79634
 Alpha virt. eigenvalues --    3.79868   3.80618   3.80693   3.81286   3.83172
 Alpha virt. eigenvalues --    3.83444   3.83512   3.84152   3.84809   3.85601
 Alpha virt. eigenvalues --    3.86155   3.86364   3.86669   3.88396   3.88936
 Alpha virt. eigenvalues --    3.90237   3.91085   3.92218   3.93084   3.93550
 Alpha virt. eigenvalues --    3.95544   3.96724   3.99228   4.00235   4.01597
 Alpha virt. eigenvalues --    4.02980   4.03048   4.04891   4.05249   4.07037
 Alpha virt. eigenvalues --    4.08208   4.09133   4.09864   4.10441   4.10980
 Alpha virt. eigenvalues --    4.12091   4.13213   4.14657   4.15565   4.18131
 Alpha virt. eigenvalues --    4.18305   4.19384   4.20051   4.21043   4.21186
 Alpha virt. eigenvalues --    4.22494   4.23709   4.23903   4.24702   4.25707
 Alpha virt. eigenvalues --    4.26340   4.26680   4.27631   4.28190   4.28718
 Alpha virt. eigenvalues --    4.29035   4.30219   4.30686   4.32719   4.33039
 Alpha virt. eigenvalues --    4.33200   4.34409   4.35356   4.36554   4.36892
 Alpha virt. eigenvalues --    4.40961   4.41314   4.41771   4.42983   4.44394
 Alpha virt. eigenvalues --    4.48051   4.50900   4.51803   4.52022   4.54033
 Alpha virt. eigenvalues --    4.56483   4.57102   4.57399   4.59559   4.60053
 Alpha virt. eigenvalues --    4.65548   4.66500   4.67034   4.67847   4.68219
 Alpha virt. eigenvalues --    4.68250   4.69124   4.70240   4.70873   4.71449
 Alpha virt. eigenvalues --    4.72487   4.74835   4.75115   4.77790   4.78924
 Alpha virt. eigenvalues --    4.79375   4.79979   4.80323   4.80490   4.81175
 Alpha virt. eigenvalues --    4.82385   4.82789   4.85650   4.87412   4.87698
 Alpha virt. eigenvalues --    4.87946   4.90554   4.93335   4.94162   4.98285
 Alpha virt. eigenvalues --    4.99432   5.00632   5.00640   5.01108   5.02489
 Alpha virt. eigenvalues --    5.03684   5.09575   5.10882   5.13610   5.13879
 Alpha virt. eigenvalues --    5.16217   5.21303   5.21341   5.23172   5.23383
 Alpha virt. eigenvalues --    5.30049   5.30106   5.32056   5.32257   5.33610
 Alpha virt. eigenvalues --    5.35466   5.36631   5.36798   5.38639   5.40700
 Alpha virt. eigenvalues --    5.40795   5.41197   5.43069   5.45331   5.45661
 Alpha virt. eigenvalues --    5.45792   5.51373   5.51694   5.55584   5.57316
 Alpha virt. eigenvalues --    5.60411   5.62402   5.62996   5.66316   5.66796
 Alpha virt. eigenvalues --    5.70485   5.71915   5.74442   5.76201   5.81269
 Alpha virt. eigenvalues --    5.82380   5.90108   5.92055   5.94577   5.98183
 Alpha virt. eigenvalues --    5.99655   6.01763   6.07061   6.13763   6.14416
 Alpha virt. eigenvalues --    6.16680   6.29917   6.30040   6.49699   6.51887
 Alpha virt. eigenvalues --    6.57145   6.59195   6.75054   6.81368   6.85191
 Alpha virt. eigenvalues --    6.85362   6.95235   6.96577   7.04418   7.06057
 Alpha virt. eigenvalues --    7.37615   7.39558   7.53488   7.56083  22.67391
 Alpha virt. eigenvalues --   22.75862  23.19508  23.20664  23.27167  23.27968
 Alpha virt. eigenvalues --   23.31727  23.31945  23.38236  23.38683  23.43952
 Alpha virt. eigenvalues --   23.51989  24.16104  24.16337  44.59134  44.64075
          Condensed to atoms (all electrons):
               1          2          3          4          5          6
     1  C    4.799852   0.417867   0.405466   0.319876  -0.053535  -0.033068
     2  H    0.417867   0.535718  -0.014054  -0.033068   0.000031   0.002105
     3  H    0.405466  -0.014054   0.618196  -0.053535   0.003452   0.000031
     4  C    0.319876  -0.033068  -0.053535   4.799852   0.405466   0.417867
     5  H   -0.053535   0.000031   0.003452   0.405466   0.618196  -0.014054
     6  H   -0.033068   0.002105   0.000031   0.417867  -0.014054   0.535718
     7  O    0.255340  -0.024759  -0.039139  -0.038477   0.005123  -0.005728
     8  O   -0.038477  -0.005728   0.005123   0.255340  -0.039139  -0.024759
     9  C   -0.062514   0.003816  -0.015189   0.009898   0.000631   0.001303
    10  C   -0.005364   0.000019   0.008930  -0.007736  -0.000865   0.004180
    11  C   -0.004900  -0.000114   0.004549   0.001994  -0.000238   0.001385
    12  C   -0.004676   0.000194  -0.004239   0.001726   0.000078   0.001011
    13  C   -0.000545   0.000066  -0.000716   0.000267  -0.000008  -0.000142
    14  C    0.000296  -0.000021   0.000630  -0.000230   0.000012   0.000011
    15  H    0.007629  -0.000281   0.004110  -0.004871   0.001359  -0.003910
    16  H   -0.000303  -0.000103   0.000349  -0.000205  -0.000006   0.000043
    17  H    0.000006   0.000001  -0.000010  -0.000043  -0.000004   0.000057
    18  H    0.000027  -0.000001  -0.000004   0.000001   0.000000  -0.000002
    19  H   -0.000004   0.000000   0.000004   0.000003   0.000000   0.000001
    20  C    0.009898   0.001303   0.000631  -0.062514  -0.015189   0.003816
    21  C   -0.007736   0.004180  -0.000865  -0.005364   0.008930   0.000019
    22  C    0.001994   0.001385  -0.000238  -0.004900   0.004549  -0.000114
    23  C    0.001726   0.001011   0.000078  -0.004676  -0.004239   0.000194
    24  C    0.000267  -0.000142  -0.000008  -0.000545  -0.000716   0.000066
    25  C   -0.000230   0.000011   0.000012   0.000296   0.000630  -0.000021
    26  H   -0.004871  -0.003910   0.001359   0.007629   0.004110  -0.000281
    27  H   -0.000205   0.000043  -0.000006  -0.000303   0.000349  -0.000103
    28  H   -0.000043   0.000057  -0.000004   0.000006  -0.000010   0.000001
    29  H    0.000001  -0.000002   0.000000   0.000027  -0.000004  -0.000001
    30  H    0.000003   0.000001   0.000000  -0.000004   0.000004   0.000000
               7          8          9         10         11         12
     1  C    0.255340  -0.038477  -0.062514  -0.005364  -0.004900  -0.004676
     2  H   -0.024759  -0.005728   0.003816   0.000019  -0.000114   0.000194
     3  H   -0.039139   0.005123  -0.015189   0.008930   0.004549  -0.004239
     4  C   -0.038477   0.255340   0.009898  -0.007736   0.001994   0.001726
     5  H    0.005123  -0.039139   0.000631  -0.000865  -0.000238   0.000078
     6  H   -0.005728  -0.024759   0.001303   0.004180   0.001385   0.001011
     7  O    7.836298   0.000227   0.356263  -0.079620  -0.044311   0.011478
     8  O    0.000227   7.836298   0.003270   0.000798  -0.000422  -0.000022
     9  C    0.356263   0.003270   4.832869   0.280888   0.436277   0.076211
    10  C   -0.079620   0.000798   0.280888   5.220789   0.073819   0.333521
    11  C   -0.044311  -0.000422   0.436277   0.073819   4.918463  -0.093568
    12  C    0.011478  -0.000022   0.076211   0.333521  -0.093568   4.970288
    13  C    0.001888  -0.000070   0.002194  -0.098644   0.528926   0.002645
    14  C   -0.000521   0.000014  -0.088639   0.009769  -0.019355   0.507854
    15  H   -0.007091   0.000182  -0.053965   0.428651   0.001709  -0.019659
    16  H    0.010983   0.000044  -0.058344   0.017053   0.423720  -0.005165
    17  H   -0.000176   0.000000   0.000235  -0.017604   0.003199   0.393927
    18  H   -0.000193   0.000000   0.011598  -0.003284  -0.034997   0.009548
    19  H    0.000016   0.000000  -0.000906   0.009409   0.006148  -0.032036
    20  C    0.003270   0.356263  -0.000650  -0.000085   0.000024  -0.000013
    21  C    0.000798  -0.079620  -0.000085   0.000009  -0.000019   0.000003
    22  C   -0.000422  -0.044311   0.000024  -0.000019  -0.000006   0.000003
    23  C   -0.000022   0.011478  -0.000013   0.000003   0.000003   0.000000
    24  C   -0.000070   0.001888  -0.000010   0.000001   0.000002   0.000000
    25  C    0.000014  -0.000521   0.000007   0.000000  -0.000001   0.000000
    26  H    0.000182  -0.007091   0.000035  -0.000001   0.000000  -0.000002
    27  H    0.000044   0.010983   0.000038   0.000002  -0.000013   0.000000
    28  H    0.000000  -0.000176   0.000000   0.000000   0.000000   0.000000
    29  H    0.000000  -0.000193   0.000000   0.000000   0.000000   0.000000
    30  H    0.000000   0.000016   0.000000   0.000000   0.000000   0.000000
              13         14         15         16         17         18
     1  C   -0.000545   0.000296   0.007629  -0.000303   0.000006   0.000027
     2  H    0.000066  -0.000021  -0.000281  -0.000103   0.000001  -0.000001
     3  H   -0.000716   0.000630   0.004110   0.000349  -0.000010  -0.000004
     4  C    0.000267  -0.000230  -0.004871  -0.000205  -0.000043   0.000001
     5  H   -0.000008   0.000012   0.001359  -0.000006  -0.000004   0.000000
     6  H   -0.000142   0.000011  -0.003910   0.000043   0.000057  -0.000002
     7  O    0.001888  -0.000521  -0.007091   0.010983  -0.000176  -0.000193
     8  O   -0.000070   0.000014   0.000182   0.000044   0.000000   0.000000
     9  C    0.002194  -0.088639  -0.053965  -0.058344   0.000235   0.011598
    10  C   -0.098644   0.009769   0.428651   0.017053  -0.017604  -0.003284
    11  C    0.528926  -0.019355   0.001709   0.423720   0.003199  -0.034997
    12  C    0.002645   0.507854  -0.019659  -0.005165   0.393927   0.009548
    13  C    4.788677   0.513576   0.000765  -0.036399   0.002340   0.415818
    14  C    0.513576   4.838595   0.005319   0.011623  -0.019255  -0.037540
    15  H    0.000765   0.005319   0.551788  -0.000277  -0.003572   0.000073
    16  H   -0.036399   0.011623  -0.000277   0.537651   0.000110  -0.007417
    17  H    0.002340  -0.019255  -0.003572   0.000110   0.530985  -0.000523
    18  H    0.415818  -0.037540   0.000073  -0.007417  -0.000523   0.538187
    19  H   -0.030769   0.411128  -0.000412  -0.000293  -0.003715  -0.004202
    20  C   -0.000010   0.000007   0.000035   0.000038   0.000000   0.000000
    21  C    0.000001   0.000000  -0.000001   0.000002   0.000000   0.000000
    22  C    0.000002  -0.000001   0.000000  -0.000013   0.000000   0.000000
    23  C    0.000000   0.000000  -0.000002   0.000000   0.000000   0.000000
    24  C    0.000000   0.000000   0.000000  -0.000001   0.000000   0.000000
    25  C    0.000000   0.000000   0.000000   0.000000   0.000000   0.000000
    26  H    0.000000   0.000000   0.000029   0.000001   0.000000   0.000000
    27  H   -0.000001   0.000000   0.000001   0.000002   0.000000   0.000000
    28  H    0.000000   0.000000   0.000000   0.000000   0.000000   0.000000
    29  H    0.000000   0.000000   0.000000   0.000000   0.000000   0.000000
    30  H    0.000000   0.000000   0.000000   0.000000   0.000000   0.000000
              19         20         21         22         23         24
     1  C   -0.000004   0.009898  -0.007736   0.001994   0.001726   0.000267
     2  H    0.000000   0.001303   0.004180   0.001385   0.001011  -0.000142
     3  H    0.000004   0.000631  -0.000865  -0.000238   0.000078  -0.000008
     4  C    0.000003  -0.062514  -0.005364  -0.004900  -0.004676  -0.000545
     5  H    0.000000  -0.015189   0.008930   0.004549  -0.004239  -0.000716
     6  H    0.000001   0.003816   0.000019  -0.000114   0.000194   0.000066
     7  O    0.000016   0.003270   0.000798  -0.000422  -0.000022  -0.000070
     8  O    0.000000   0.356263  -0.079620  -0.044311   0.011478   0.001888
     9  C   -0.000906  -0.000650  -0.000085   0.000024  -0.000013  -0.000010
    10  C    0.009409  -0.000085   0.000009  -0.000019   0.000003   0.000001
    11  C    0.006148   0.000024  -0.000019  -0.000006   0.000003   0.000002
    12  C   -0.032036  -0.000013   0.000003   0.000003   0.000000   0.000000
    13  C   -0.030769  -0.000010   0.000001   0.000002   0.000000   0.000000
    14  C    0.411128   0.000007   0.000000  -0.000001   0.000000   0.000000
    15  H   -0.000412   0.000035  -0.000001   0.000000  -0.000002   0.000000
    16  H   -0.000293   0.000038   0.000002  -0.000013   0.000000  -0.000001
    17  H   -0.003715   0.000000   0.000000   0.000000   0.000000   0.000000
    18  H   -0.004202   0.000000   0.000000   0.000000   0.000000   0.000000
    19  H    0.531798   0.000000   0.000000   0.000000   0.000000   0.000000
    20  C    0.000000   4.832869   0.280888   0.436277   0.076211   0.002194
    21  C    0.000000   0.280888   5.220789   0.073819   0.333521  -0.098644
    22  C    0.000000   0.436277   0.073819   4.918463  -0.093568   0.528926
    23  C    0.000000   0.076211   0.333521  -0.093568   4.970288   0.002645
    24  C    0.000000   0.002194  -0.098644   0.528926   0.002645   4.788677
    25  C    0.000000  -0.088639   0.009769  -0.019355   0.507854   0.513576
    26  H    0.000000  -0.053965   0.428651   0.001709  -0.019659   0.000765
    27  H    0.000000  -0.058344   0.017053   0.423720  -0.005165  -0.036399
    28  H    0.000000   0.000235  -0.017604   0.003199   0.393927   0.002340
    29  H    0.000000   0.011598  -0.003284  -0.034997   0.009548   0.415818
    30  H    0.000000  -0.000906   0.009409   0.006148  -0.032036  -0.030769
              25         26         27         28         29         30
     1  C   -0.000230  -0.004871  -0.000205  -0.000043   0.000001   0.000003
     2  H    0.000011  -0.003910   0.000043   0.000057  -0.000002   0.000001
     3  H    0.000012   0.001359  -0.000006  -0.000004   0.000000   0.000000
     4  C    0.000296   0.007629  -0.000303   0.000006   0.000027  -0.000004
     5  H    0.000630   0.004110   0.000349  -0.000010  -0.000004   0.000004
     6  H   -0.000021  -0.000281  -0.000103   0.000001  -0.000001   0.000000
     7  O    0.000014   0.000182   0.000044   0.000000   0.000000   0.000000
     8  O   -0.000521  -0.007091   0.010983  -0.000176  -0.000193   0.000016
     9  C    0.000007   0.000035   0.000038   0.000000   0.000000   0.000000
    10  C    0.000000  -0.000001   0.000002   0.000000   0.000000   0.000000
    11  C   -0.000001   0.000000  -0.000013   0.000000   0.000000   0.000000
    12  C    0.000000  -0.000002   0.000000   0.000000   0.000000   0.000000
    13  C    0.000000   0.000000  -0.000001   0.000000   0.000000   0.000000
    14  C    0.000000   0.000000   0.000000   0.000000   0.000000   0.000000
    15  H    0.000000   0.000029   0.000001   0.000000   0.000000   0.000000
    16  H    0.000000   0.000001   0.000002   0.000000   0.000000   0.000000
    17  H    0.000000   0.000000   0.000000   0.000000   0.000000   0.000000
    18  H    0.000000   0.000000   0.000000   0.000000   0.000000   0.000000
    19  H    0.000000   0.000000   0.000000   0.000000   0.000000   0.000000
    20  C   -0.088639  -0.053965  -0.058344   0.000235   0.011598  -0.000906
    21  C    0.009769   0.428651   0.017053  -0.017604  -0.003284   0.009409
    22  C   -0.019355   0.001709   0.423720   0.003199  -0.034997   0.006148
    23  C    0.507854  -0.019659  -0.005165   0.393927   0.009548  -0.032036
    24  C    0.513576   0.000765  -0.036399   0.002340   0.415818  -0.030769
    25  C    4.838595   0.005319   0.011623  -0.019255  -0.037540   0.411128
    26  H    0.005319   0.551788  -0.000277  -0.003572   0.000073  -0.000412
    27  H    0.011623  -0.000277   0.537651   0.000110  -0.007417  -0.000293
    28  H   -0.019255  -0.003572   0.000110   0.530985  -0.000523  -0.003715
    29  H   -0.037540   0.000073  -0.007417  -0.000523   0.538187  -0.004202
    30  H    0.411128  -0.000412  -0.000293  -0.003715  -0.004202   0.531798
 Mulliken charges:
               1
     1  C   -0.003776
     2  H    0.114374
     3  H    0.075087
     4  C   -0.003776
     5  H    0.075087
     6  H    0.114374
     7  O   -0.241396
     8  O   -0.241396
     9  C    0.264757
    10  C   -0.174618
    11  C   -0.202273
    12  C   -0.149106
    13  C   -0.089860
    14  C   -0.133274
    15  H    0.092393
    16  H    0.106908
    17  H    0.114042
    18  H    0.112912
    19  H    0.113831
    20  C    0.264757
    21  C   -0.174618
    22  C   -0.202273
    23  C   -0.149106
    24  C   -0.089860
    25  C   -0.133274
    26  H    0.092393
    27  H    0.106908
    28  H    0.114042
    29  H    0.112912
    30  H    0.113831
 Sum of Mulliken charges =   0.00000
 Mulliken charges with hydrogens summed into heavy atoms:
               1
     1  C    0.185685
     4  C    0.185685
     7  O   -0.241396
     8  O   -0.241396
     9  C    0.264757
    10  C   -0.082226
    11  C   -0.095365
    12  C   -0.035064
    13  C    0.023052
    14  C   -0.019443
    20  C    0.264757
    21  C   -0.082226
    22  C   -0.095365
    23  C   -0.035064
    24  C    0.023052
    25  C   -0.019443
 Electronic spatial extent (au):  <R**2>=           5324.1114
 Charge=              0.0000 electrons
 Dipole moment (field-independent basis, Debye):
    X=              0.0000    Y=              0.0000    Z=             -1.7541  Tot=              1.7541
 Quadrupole moment (field-independent basis, Debye-Ang):
   XX=            -95.9399   YY=            -91.1111   ZZ=            -85.1557
   XY=              6.2539   XZ=              0.0000   YZ=              0.0000
 Traceless Quadrupole moment (field-independent basis, Debye-Ang):
   XX=             -5.2043   YY=             -0.3755   ZZ=              5.5798
   XY=              6.2539   XZ=              0.0000   YZ=              0.0000
 Octapole moment (field-independent basis, Debye-Ang**2):
  XXX=              0.0000  YYY=              0.0000  ZZZ=              1.8320  XYY=              0.0000
  XXY=              0.0000  XXZ=             -8.7480  XZZ=              0.0000  YZZ=              0.0000
  YYZ=             23.3216  XYZ=            -11.7681
 Hexadecapole moment (field-independent basis, Debye-Ang**3):
 XXXX=           -595.8220 YYYY=          -6006.4259 ZZZZ=           -620.6443 XXXY=           -614.0670
 XXXZ=              0.0000 YYYX=           -340.3765 YYYZ=              0.0000 ZZZX=              0.0000
 ZZZY=              0.0000 XXYY=          -1109.4523 XXZZ=           -200.8502 YYZZ=          -1051.2543
 XXYZ=              0.0000 YYXZ=              0.0000 ZZXY=           -188.1440
 N-N= 1.001049076758D+03 E-N=-3.613327469484D+03  KE= 6.885817273389D+02
 Symmetry A    KE= 3.454760899631D+02
 Symmetry B    KE= 3.431056373758D+02
 No NMR shielding tensors so no spin-rotation constants.
 Leave Link  601 at Fri May 17 10:31:42 2024, MaxMem=  6291456000 cpu:        62.3
 (Enter /home/madghost/g09/l607.exe)
 ******************************Gaussian NBO Version 3.1******************************
             N A T U R A L   A T O M I C   O R B I T A L   A N D
          N A T U R A L   B O N D   O R B I T A L   A N A L Y S I S
 ******************************Gaussian NBO Version 3.1******************************

       /RESON  / : Allow strongly delocalized NBO set
       /E2PERT / : Analyze NBO Fock matrix
                   Print threshold set to  0.05
       /PLOT   / : Write information for the orbital plotter
       /ARCHIVE/ : Write the archive file to LFN 47
       /BNDIDX / : Print bond indices based on the NAO density matrix
       /FILE   / : Set to JOB104                                              

 Analyzing the SCF density

 Job title: c2h                                                             

 Storage needed:   1440014 in NPA,   1918463 in NBO,   1440952 in NLMO (6291451200 available)


 NATURAL POPULATIONS:  Natural atomic orbital occupancies 
                                                          
   NAO  Atom  No  lang   Type(AO)    Occupancy      Energy
 ----------------------------------------------------------
     1    C    1  S      Cor( 1S)     1.99923     -10.15795
     2    C    1  S      Val( 2S)     1.03719      -0.30781
     3    C    1  S      Ryd( 3S)     0.00244       1.27855
     4    C    1  S      Ryd( 4S)     0.00017       2.70104
     5    C    1  S      Ryd( 5S)     0.00000      21.49333
     6    C    1  px     Val( 2p)     1.11777      -0.12554
     7    C    1  px     Ryd( 3p)     0.00168       1.01212
     8    C    1  px     Ryd( 4p)     0.00041       1.81761
     9    C    1  py     Val( 2p)     0.99785      -0.11914
    10    C    1  py     Ryd( 3p)     0.00226       1.18829
    11    C    1  py     Ryd( 4p)     0.00027       1.60157
    12    C    1  pz     Val( 2p)     0.94926      -0.10797
    13    C    1  pz     Ryd( 3p)     0.00291       1.11266
    14    C    1  pz     Ryd( 4p)     0.00037       1.52198
    15    C    1  dxy    Ryd( 3d)     0.00230       1.70769
    16    C    1  dxy    Ryd( 4d)     0.00015       3.53109
    17    C    1  dxz    Ryd( 3d)     0.00067       1.54145
    18    C    1  dxz    Ryd( 4d)     0.00025       3.03460
    19    C    1  dyz    Ryd( 3d)     0.00108       1.92381
[...]
   20      25      31    -0.0033315      -0.0283751
   20      25      33    -0.0665793      -0.0440253
   20      25      34    -0.0035581      -0.0147769
   20      25      36    -0.0033176      -0.0174034
   20      25      57     0.0127716       0.0402257
   20      26      26    -0.0027817      -0.1127301
   20      26      28     0.0067564       0.0133900
   20      27      24    -0.0023972      -0.1235302
   20      27      31     0.0071223       0.0303850
   20      28      24     0.0024037       0.0624443
   20      28      34    -0.0035581      -0.0037077
   20      29      26     0.0025172       0.0594952
   20      29      36    -0.0033176      -0.0051335
   20      30      27     0.0026777       0.0534190
   20      30      29     0.0026208       0.0610771
   21      22      24     0.0041388       0.1520403
   21      22      25     0.0694418       0.1155310
   21      22      26     0.0038913       0.2264685
   21      22      28    -0.0034690      -0.0618662
   21      22      30    -0.0388116      -0.0737187
   21      22      31    -0.0038292      -0.0557037
   21      22      33    -0.0500027      -0.0873396
   21      22      37    -0.0031918      -0.0844591
   21      22      56    -0.0026869      -0.3597539
   21      22      57     0.0186294       0.0653020
   21      23      24     0.0044926       0.2530774
   21      23      25     0.1555652       0.4174132
   21      23      27     0.9765089       0.8045451
   21      23      28     0.0056892       0.1621178
   21      23      30     0.0388116       0.3311630
   21      23      32     0.0041870       0.3090544
   21      23      33     0.0616354       0.4380411
   21      23      34     0.0059707       0.1861863
   21      23      37    -0.0035095      -0.4289639
   21      24      25    -0.0645276      -0.0438909
   21      24      26     0.0038913       0.1493786
   21      24      30    -0.0388116      -0.0403290
   21      24      31    -0.0038292      -0.0452352
   21      24      32     0.0040255       0.2148556
   21      24      33     0.0616354       0.0799444
   21      24      34    -0.0031922      -0.0581286
   21      24      37    -0.0035095      -0.0514091
   21      25      25    -0.0530700      -0.0697848
   21      25      27     0.0039391       0.2238778
   21      25      28    -0.0030708      -0.0597073
   21      25      30    -0.0388116      -0.0853949
   21      25      31    -0.0033315      -0.0650874
   21      25      32     0.0041870       0.2182738
   21      25      33     0.0616354       0.1212793
   21      25      34     0.0059317       0.3194413
   21      25      37    -0.0035095      -0.0677270
   21      25      57    -0.0127716      -0.0577962
   21      26      26    -0.0027817      -0.5017247
   21      26      28     0.7741514       0.8134886
   21      26      32    -0.0027461      -0.5106820
   21      27      24    -0.0023972      -0.0072291
   21      27      31    -0.0038292      -0.0017474
   21      28      24    -0.0024037      -0.1226076
   21      28      34     0.0059707       0.0474268
   21      29      26     0.0025172       0.0501051
   21      29      32     0.0027526       0.0686344
   21      30      27     0.0026777       0.0711987
   21      30      37    -0.0035095      -0.0031392
   22      23      24     0.0041388       0.1214685
   22      23      25     0.0694418       0.0738236
   22      23      28    -0.0034690      -0.0474742
   22      23      30    -0.0663078      -0.0413774
   22      23      33    -0.0500027      -0.0383029
   22      23      35     0.0041459       0.2240054
   22      23      36    -0.0030636      -0.0535508
   22      23      37    -0.0031918      -0.0454031
   22      24      25    -0.0645276      -0.3753643
   22      24      26     0.0038962       0.2756512
   22      24      29     0.9818824       0.8093282
   22      24      30     0.7727676       0.4060187
   22      24      31     0.0062332       0.1231307
   22      24      33    -0.0500027      -0.3551146
   22      24      35     0.0042725       0.3049257
   22      24      36     0.0060521       0.1917222
   22      24      37    -0.0031918      -0.4074733
   22      25      25    -0.0530700      -0.0795739
   22      25      28    -0.0030708      -0.0693201
   22      25      29     0.0039099       0.2139820
   22      25      30     0.0670018       0.1147604
   22      25      31    -0.0033315      -0.0640423
   22      25      33    -0.0500027      -0.0695978
   22      25      35     0.0042725       0.2041270
   22      25      36     0.0057007       0.3082646
   22      25      37    -0.0031918      -0.0613692
   22      25      57    -0.0127716      -0.0577908
   22      26      26     0.0027817       0.0006346
   22      26      28     0.0034690       0.0018447
   22      27      24    -0.0023972      -0.4614235
   22      27      31     0.7622817       0.8106111
   22      27      35    -0.0028368      -0.5262984
   22      28      24     0.0024037       0.0478396
   22      28      35     0.0028968       0.0708993
   22      29      26    -0.0025172      -0.1161188
   22      29      36     0.0060521       0.0483283
   22      30      29     0.0026208       0.0669868
   22      30      37    -0.0031918      -0.0008192
   23      24      25    -0.0645276      -0.0894379
   23      24      30    -0.0663078      -0.0793380
   23      24      32     0.0040255       0.2327724
   23      24      33     0.1475657       0.1155477
   23      24      34    -0.0031922      -0.0738517
   23      24      35     0.0041459       0.2351450
   23      24      36    -0.0030636      -0.0736283
   23      24      37     0.0057903       0.2841473
   23      25      25    -0.0530700      -0.3551650
   23      25      27     0.0039391       0.3168722
   23      25      28    -0.0030708      -0.3886336
   23      25      30    -0.0663078      -0.3734543
   23      25      32     0.9885121       0.8071057
   23      25      33     0.7665710       0.4077338
   23      25      34     0.0059317       0.1596226
   23      25      35     0.0041459       0.3368044
   23      25      36    -0.0030636      -0.4058520
   23      25      37     0.0062876       0.1450483
   23      26      28     0.0056892       0.0533607
   23      26      32    -0.0027461      -0.1177594
   23      27      24     0.0023972       0.0049469
   23      27      35     0.0028368       0.0206500
   23      28      24    -0.0024037      -0.5428871
   23      28      34     0.7750867       0.8102069
   23      28      35    -0.0028968      -0.5798718
   23      29      32     0.0027526       0.0682356
   23      29      36    -0.0030636      -0.0044624
   23      30      27    -0.0026777      -0.1170270
   23      30      37     0.0062876       0.0204094
   24      25      25     0.0530700       0.3279425
   24      25      29     0.0039099       0.3160985
   24      25      30     0.0670018       0.4294069
   24      25      31    -0.0033315      -0.4180419
   24      25      32     0.0040255       0.3283891
   24      25      33     0.1475657       0.4195179
   24      25      34    -0.0031922      -0.4149522
   24      25      35     0.9906773       0.8062467
   24      25      36     0.0057007       0.1631530
   24      25      37     0.0057903       0.1376941
   24      26      26     0.0027817       0.0108856
   24      26      32     0.0027461       0.0211760
   24      27      31     0.0062332       0.0178800
   24      27      35    -0.0028368      -0.1157707
   24      28      34    -0.0031922      -0.0068376
   24      28      35     0.0028968       0.0697560
   24      29      26    -0.0025172      -0.5659945
   24      29      32    -0.0027526      -0.5745563
   24      29      36     0.7736932       0.8110650
   24      30      29    -0.0026208      -0.1161329
   24      30      37     0.0057903       0.0121986
   25      26      28     0.0030708       0.0023482
   25      26      32     0.0027461       0.0101107
   25      27      31     0.0033315       0.0002495
   25      27      35     0.0028368       0.0084155
   25      28      34     0.0059317       0.0215468
   25      28      35    -0.0028968      -0.1127503
   25      29      32    -0.0027526      -0.1120408
   25      29      36     0.0057007       0.0244841
   25      30      27    -0.0026777      -0.5843602
   25      30      29    -0.0026208      -0.5837159
   25      30      37     0.7732077       0.8110091
   26      29      26    -0.0025172      -0.0010068
   26      29      32    -0.0027461      -0.0006413
   27      28      24    -0.0023972      -0.0015946
   27      28      35    -0.0028368      -0.0007394


 Atom-Atom Net Linear NLMO/NPA Bond Orders:                                    

     Atom    1       2       3       4       5       6       7       8       9
     ---- ------  ------  ------  ------  ------  ------  ------  ------  ------
   1.  C  0.0000  0.7641  0.7848  0.9989  0.0001 -0.0012  0.6945 -0.0150  0.0184
   2.  H  0.7641  0.0000 -0.0031 -0.0012 -0.0008 -0.0061 -0.0116  0.0000  0.0070
   3.  H  0.7848 -0.0031  0.0000  0.0001 -0.0029 -0.0008 -0.0167  0.0028 -0.0107
   4.  C  0.9989 -0.0012  0.0001  0.0000  0.7848  0.7641 -0.0150  0.6945 -0.0124
   5.  H  0.0001 -0.0008 -0.0029  0.7848  0.0000 -0.0031  0.0028 -0.0167 -0.0010
   6.  H -0.0012 -0.0061 -0.0008  0.7641 -0.0031  0.0000  0.0000 -0.0116 -0.0057
   7.  O  0.6945 -0.0116 -0.0167 -0.0150  0.0028  0.0000  0.0000  0.0071  0.7492
   8.  O -0.0150  0.0000  0.0028  0.6945 -0.0167 -0.0116  0.0071  0.0000 -0.0013
   9.  C  0.0184  0.0070 -0.0107 -0.0124 -0.0010 -0.0057  0.7492 -0.0013  0.0000
  10.  C -0.0270  0.0034  0.0027  0.0066  0.0015 -0.0005 -0.0396 -0.0003  1.5494
  11.  C -0.0048  0.0002 -0.0072  0.0122  0.0002 -0.0002 -0.0241  0.0002  1.2342
  12.  C  0.0003 -0.0010 -0.0010 -0.0003  0.0001 -0.0012  0.0055  0.0007  0.0306
  13.  C -0.0088 -0.0027  0.0001  0.0027  0.0011  0.0015  0.0091  0.0001  0.0265
  14.  C  0.0123 -0.0012  0.0103 -0.0093 -0.0011  0.0006  0.0224  0.0000 -0.0464
  15.  H -0.0054  0.0009 -0.0012 -0.0019  0.0001  0.0002  0.0011 -0.0004  0.0024
  16.  H  0.0017  0.0008  0.0002  0.0002 -0.0001  0.0002 -0.0003 -0.0001  0.0032
  17.  H  0.0017  0.0000  0.0000  0.0002 -0.0001  0.0000 -0.0027  0.0004  0.0009
  18.  H -0.0019  0.0003 -0.0002  0.0000 -0.0002  0.0001  0.0008  0.0001  0.0012
  19.  H  0.0006 -0.0003  0.0000  0.0003  0.0000  0.0000  0.0057  0.0000  0.0071
  20.  C -0.0124 -0.0057 -0.0010  0.0184 -0.0107  0.0070 -0.0013  0.7492  0.0000
  21.  C  0.0066 -0.0005  0.0015 -0.0270  0.0027  0.0034 -0.0003 -0.0396  0.0002
  22.  C  0.0122 -0.0002  0.0002 -0.0048 -0.0072  0.0002  0.0002 -0.0241 -0.0003
  23.  C -0.0003 -0.0012  0.0001  0.0003 -0.0010 -0.0010  0.0007  0.0055 -0.0007
  24.  C  0.0027  0.0015  0.0011 -0.0088  0.0001 -0.0027  0.0001  0.0091 -0.0001
  25.  C -0.0093  0.0006 -0.0011  0.0123  0.0103 -0.0012  0.0000  0.0224  0.0001
  26.  H -0.0019  0.0002  0.0001 -0.0054 -0.0012  0.0009 -0.0004  0.0011  0.0002
  27.  H  0.0002  0.0002 -0.0001  0.0017  0.0002  0.0008 -0.0001 -0.0003  0.0000
  28.  H  0.0002  0.0000 -0.0001  0.0017  0.0000  0.0000  0.0004 -0.0027 -0.0001
  29.  H  0.0000  0.0001 -0.0002 -0.0019 -0.0002  0.0003  0.0001  0.0008  0.0000
  30.  H  0.0003  0.0000  0.0000  0.0006  0.0000 -0.0003  0.0000  0.0057 -0.0001

     Atom   10      11      12      13      14      15      16      17      18
     ---- ------  ------  ------  ------  ------  ------  ------  ------  ------
   1.  C -0.0270 -0.0048  0.0003 -0.0088  0.0123 -0.0054  0.0017  0.0017 -0.0019
   2.  H  0.0034  0.0002 -0.0010 -0.0027 -0.0012  0.0009  0.0008  0.0000  0.0003
   3.  H  0.0027 -0.0072 -0.0010  0.0001  0.0103 -0.0012  0.0002  0.0000 -0.0002
   4.  C  0.0066  0.0122 -0.0003  0.0027 -0.0093 -0.0019  0.0002  0.0002  0.0000
   5.  H  0.0015  0.0002  0.0001  0.0011 -0.0011  0.0001 -0.0001 -0.0001 -0.0002
   6.  H -0.0005 -0.0002 -0.0012  0.0015  0.0006  0.0002  0.0002  0.0000  0.0001
   7.  O -0.0396 -0.0241  0.0055  0.0091  0.0224  0.0011 -0.0003 -0.0027  0.0008
   8.  O -0.0003  0.0002  0.0007  0.0001  0.0000 -0.0004 -0.0001  0.0004  0.0001
   9.  C  1.5494  1.2342  0.0306  0.0265 -0.0464  0.0024  0.0032  0.0009  0.0012
  10.  C  0.0000 -0.0061  1.2457 -0.0437 -0.0403  0.7666 -0.0042  0.0025  0.0069
  11.  C -0.0061  0.0000 -0.0492  1.6559 -0.0461  0.0087  0.7558  0.0073  0.0013
  12.  C  1.2457 -0.0492  0.0000  0.0235  1.6481  0.0024  0.0069  0.7682  0.0014
  13.  C -0.0437  1.6559  0.0235  0.0000  1.2681  0.0067  0.0028  0.0011  0.7670
  14.  C -0.0403 -0.0461  1.6481  1.2681  0.0000  0.0081  0.0088  0.0020  0.0009
  15.  H  0.7666  0.0087  0.0024  0.0067  0.0081  0.0000  0.0008 -0.0028 -0.0057
  16.  H -0.0042  0.7558  0.0069  0.0028  0.0088  0.0008  0.0000 -0.0057 -0.0019
  17.  H  0.0025  0.0073  0.7682  0.0011  0.0020 -0.0028 -0.0057  0.0000 -0.0027
  18.  H  0.0069  0.0013  0.0014  0.7670  0.0009 -0.0057 -0.0019 -0.0027  0.0000
  19.  H  0.0010  0.0012  0.0016  0.0012  0.7665 -0.0010 -0.0009 -0.0032 -0.0034
  20.  C  0.0002 -0.0003 -0.0007 -0.0001  0.0001  0.0002  0.0000 -0.0001  0.0000
  21.  C  0.0008  0.0008  0.0005  0.0004  0.0004  0.0002 -0.0001  0.0001  0.0000
  22.  C  0.0008  0.0005  0.0002  0.0001  0.0003  0.0004  0.0000  0.0000  0.0000
  23.  C  0.0005  0.0002  0.0001 -0.0001  0.0002  0.0003 -0.0001  0.0000  0.0000
  24.  C  0.0004  0.0001 -0.0001  0.0000  0.0000  0.0001  0.0001 -0.0001  0.0000
  25.  C  0.0004  0.0003  0.0002  0.0000  0.0003  0.0002  0.0000  0.0000  0.0000
  26.  H  0.0002  0.0004  0.0003  0.0001  0.0002  0.0003  0.0000  0.0000  0.0000
  27.  H -0.0001  0.0000 -0.0001  0.0001  0.0000  0.0000  0.0000  0.0000  0.0000
  28.  H  0.0001  0.0000  0.0000 -0.0001  0.0000  0.0000  0.0000  0.0000  0.0000
  29.  H  0.0000  0.0000  0.0000  0.0000  0.0000  0.0000  0.0000  0.0000  0.0000
  30.  H  0.0000  0.0000  0.0000  0.0000  0.0000  0.0000  0.0000  0.0000  0.0000

     Atom   19      20      21      22      23      24      25      26      27
     ---- ------  ------  ------  ------  ------  ------  ------  ------  ------
   1.  C  0.0006 -0.0124  0.0066  0.0122 -0.0003  0.0027 -0.0093 -0.0019  0.0002
   2.  H -0.0003 -0.0057 -0.0005 -0.0002 -0.0012  0.0015  0.0006  0.0002  0.0002
   3.  H  0.0000 -0.0010  0.0015  0.0002  0.0001  0.0011 -0.0011  0.0001 -0.0001
   4.  C  0.0003  0.0184 -0.0270 -0.0048  0.0003 -0.0088  0.0123 -0.0054  0.0017
   5.  H  0.0000 -0.0107  0.0027 -0.0072 -0.0010  0.0001  0.0103 -0.0012  0.0002
   6.  H  0.0000  0.0070  0.0034  0.0002 -0.0010 -0.0027 -0.0012  0.0009  0.0008
   7.  O  0.0057 -0.0013 -0.0003  0.0002  0.0007  0.0001  0.0000 -0.0004 -0.0001
   8.  O  0.0000  0.7492 -0.0396 -0.0241  0.0055  0.0091  0.0224  0.0011 -0.0003
   9.  C  0.0071  0.0000  0.0002 -0.0003 -0.0007 -0.0001  0.0001  0.0002  0.0000
  10.  C  0.0010  0.0002  0.0008  0.0008  0.0005  0.0004  0.0004  0.0002 -0.0001
  11.  C  0.0012 -0.0003  0.0008  0.0005  0.0002  0.0001  0.0003  0.0004  0.0000
  12.  C  0.0016 -0.0007  0.0005  0.0002  0.0001 -0.0001  0.0002  0.0003 -0.0001
  13.  C  0.0012 -0.0001  0.0004  0.0001 -0.0001  0.0000  0.0000  0.0001  0.0001
  14.  C  0.7665  0.0001  0.0004  0.0003  0.0002  0.0000  0.0003  0.0002  0.0000
  15.  H -0.0010  0.0002  0.0002  0.0004  0.0003  0.0001  0.0002  0.0003  0.0000
  16.  H -0.0009  0.0000 -0.0001  0.0000 -0.0001  0.0001  0.0000  0.0000  0.0000
  17.  H -0.0032 -0.0001  0.0001  0.0000  0.0000 -0.0001  0.0000  0.0000  0.0000
  18.  H -0.0034  0.0000  0.0000  0.0000  0.0000  0.0000  0.0000  0.0000  0.0000
  19.  H  0.0000 -0.0001  0.0000  0.0000  0.0000  0.0000  0.0000  0.0000  0.0000
  20.  C -0.0001  0.0000  1.5494  1.2342  0.0306  0.0265 -0.0464  0.0024  0.0032
  21.  C  0.0000  1.5494  0.0000 -0.0061  1.2457 -0.0437 -0.0403  0.7666 -0.0042
  22.  C  0.0000  1.2342 -0.0061  0.0000 -0.0492  1.6559 -0.0461  0.0087  0.7558
  23.  C  0.0000  0.0306  1.2457 -0.0492  0.0000  0.0235  1.6481  0.0024  0.0069
  24.  C  0.0000  0.0265 -0.0437  1.6559  0.0235  0.0000  1.2681  0.0067  0.0028
  25.  C  0.0000 -0.0464 -0.0403 -0.0461  1.6481  1.2681  0.0000  0.0081  0.0088
  26.  H  0.0000  0.0024  0.7666  0.0087  0.0024  0.0067  0.0081  0.0000  0.0008
  27.  H  0.0000  0.0032 -0.0042  0.7558  0.0069  0.0028  0.0088  0.0008  0.0000
  28.  H  0.0000  0.0009  0.0025  0.0073  0.7682  0.0011  0.0020 -0.0028 -0.0057
  29.  H  0.0000  0.0012  0.0069  0.0013  0.0014  0.7670  0.0009 -0.0057 -0.0019
  30.  H  0.0000  0.0071  0.0010  0.0012  0.0016  0.0012  0.7665 -0.0010 -0.0009

     Atom   28      29      30
     ---- ------  ------  ------
   1.  C  0.0002  0.0000  0.0003
   2.  H  0.0000  0.0001  0.0000
   3.  H -0.0001 -0.0002  0.0000
   4.  C  0.0017 -0.0019  0.0006
   5.  H  0.0000 -0.0002  0.0000
   6.  H  0.0000  0.0003 -0.0003
   7.  O  0.0004  0.0001  0.0000
   8.  O -0.0027  0.0008  0.0057
   9.  C -0.0001  0.0000 -0.0001
  10.  C  0.0001  0.0000  0.0000
  11.  C  0.0000  0.0000  0.0000
  12.  C  0.0000  0.0000  0.0000
  13.  C -0.0001  0.0000  0.0000
  14.  C  0.0000  0.0000  0.0000
  15.  H  0.0000  0.0000  0.0000
  16.  H  0.0000  0.0000  0.0000
  17.  H  0.0000  0.0000  0.0000
  18.  H  0.0000  0.0000  0.0000
  19.  H  0.0000  0.0000  0.0000
  20.  C  0.0009  0.0012  0.0071
  21.  C  0.0025  0.0069  0.0010
  22.  C  0.0073  0.0013  0.0012
  23.  C  0.7682  0.0014  0.0016
  24.  C  0.0011  0.7670  0.0012
  25.  C  0.0020  0.0009  0.7665
  26.  H -0.0028 -0.0057 -0.0010
  27.  H -0.0057 -0.0019 -0.0009
  28.  H  0.0000 -0.0027 -0.0032
  29.  H -0.0027  0.0000 -0.0034
  30.  H -0.0032 -0.0034  0.0000


 Linear NLMO/NPA Bond Orders, Totals by Atom:                                  

     Atom    1
     ---- ------
   1.  C  3.2115
   2.  H  0.7438
   3.  H  0.7577
   4.  C  3.2115
   5.  H  0.7577
   6.  H  0.7438
   7.  O  1.3873
   8.  O  1.3873
   9.  C  3.5518
  10.  C  3.4276
  11.  C  3.5413
  12.  C  3.6827
  13.  C  3.7128
  14.  C  3.6054
  15.  H  0.7812
  16.  H  0.7683
  17.  H  0.7671
  18.  H  0.7641
  19.  H  0.7761
  20.  C  3.5518
  21.  C  3.4276
  22.  C  3.5413
  23.  C  3.6827
  24.  C  3.7128
  25.  C  3.6054
  26.  H  0.7812
  27.  H  0.7683
  28.  H  0.7671
  29.  H  0.7641
  30.  H  0.7761
 Leave Link  607 at Fri May 17 10:32:12 2024, MaxMem=  6291456000 cpu:       700.9
 (Enter /home/madghost/g09/l9999.exe)
 1\1\GINC-NODE-5\SP\RPBE1PBE\Gen\C14H14O2\NATALYA\17-May-2024\0\\#P PBE
 1PBE/GEN pop=nboread\\c2h\\0,1\C,0,-0.640735,0.405014,-0.9758356\H,0,-
 1.501264,-0.256335,-0.8671751\H,0,-0.747669,0.937777,-1.9280911\C,0,0.
 640735,-0.405014,-0.9758356\H,0,0.747669,-0.937777,-1.9280911\H,0,1.50
 1264,0.256335,-0.8671751\O,0,-0.722868,1.290683,0.1167738\O,0,0.722868
 ,-1.290683,0.1167738\C,0,0.003694,2.434464,0.0989376\C,0,0.751165,2.88
 7886,-0.9836346\C,0,-0.044517,3.19318,1.2670096\C,0,1.435372,4.093937,
 -0.8878556\C,0,0.640735,4.389485,1.3468676\C,0,1.387756,4.85068,0.2689
 686\H,0,0.811175,2.320892,-1.9028961\H,0,-0.630207,2.820477,2.0985741\
 H,0,2.014441,4.437413,-1.7376621\H,0,0.592617,4.96883,2.2619031\H,0,1.
 92648,5.787927,0.3344221\C,0,-0.003694,-2.434464,0.0989376\C,0,-0.7511
 65,-2.887886,-0.9836346\C,0,0.044517,-3.19318,1.2670096\C,0,-1.435372,
 -4.093937,-0.8878556\C,0,-0.640735,-4.389485,1.3468676\C,0,-1.387756,-
 4.85068,0.2689686\H,0,-0.811175,-2.320892,-1.9028961\H,0,0.630207,-2.8
 20477,2.0985741\H,0,-2.014441,-4.437413,-1.7376621\H,0,-0.592617,-4.96
 883,2.2619031\H,0,-1.92648,-5.787927,0.3344221\\Version=EM64L-G09RevD.
 01\State=1-A\HF=-691.7919467\RMSD=8.555e-09\Dipole=0.,0.,-0.6901285\Qu
 adrupole=-3.8692593,-0.2792082,4.1484675,4.6495875,0.,0.\PG=C02 [X(C14
 H14O2)]\\@


 I DO NOT DEFINE TIME, SPACE, PLACE, AND MOTION, AS BEING WELL KNOWN TO ALL.
                                            -- NEWTON (1642-1726), PRINCIPIA
 Job cpu time:       0 days  1 hours 54 minutes 22.9 seconds.
 File lengths (MBytes):  RWF=    266 Int=      0 D2E=      0 Chk=     18 Scr=      1
 Normal termination of Gaussian 09 at Fri May 17 10:32:12 2024.
