 Entering Gaussian System, Link 0=/home/madghost/g09/g09
 Input=job12.gjf
 Output=job12.log
 Initial command:
 /home/madghost/g09/l1.exe "/scr/natalya/job12/Gau-1491937.inp" -scrdir="/scr/natalya/job12/"
 Entering Link 1 = /home/madghost/g09/l1.exe PID=   1491939.
  
 Copyright (c) 1988,1990,1992,1993,1995,1998,2003,2009,2013,
            Gaussian, Inc.  All Rights Reserved.
  
 This is part of the Gaussian(R) 09 program.  It is based on
 the Gaussian(R) 03 system (copyright 2003, Gaussian, Inc.),
 the Gaussian(R) 98 system (copyright 1998, Gaussian, Inc.),
 the Gaussian(R) 94 system (copyright 1995, Gaussian, Inc.),
 the Gaussian 92(TM) system (copyright 1992, Gaussian, Inc.),
 the Gaussian 90(TM) system (copyright 1990, Gaussian, Inc.),
 the Gaussian 88(TM) system (copyright 1988, Gaussian, Inc.),
 the Gaussian 86(TM) system (copyright 1986, Carnegie Mellon
 University), and the Gaussian 82(TM) system (copyright 1983,
 Carnegie Mellon University). Gaussian is a federally registered
 trademark of Gaussian, Inc.
  
 This software contains proprietary and confidential information,
 including trade secrets, belonging to Gaussian, Inc.
  
 This software is provided under written license and may be
 used, copied, transmitted, or stored only in accord with that
 written license.
  
 The following legend is applicable only to US Government
 contracts under FAR:
  
                    RESTRICTED RIGHTS LEGEND
  
 Use, reproduction and disclosure by the US Government is
 subject to restrictions as set forth in subparagraphs (a)
 and (c) of the Commercial Computer Software - Restricted
 Rights clause in FAR 52.227-19.
  
 Gaussian, Inc.
 340 Quinnipiac St., Bldg. 40, Wallingford CT 06492
  
  
 ---------------------------------------------------------------
 Warning -- This program may not be used in any manner that
 competes with the business of Gaussian, Inc. or will provide
 assistance to any competitor of Gaussian, Inc.  The licensee
 of this program is prohibited from giving any competitor of
 Gaussian, Inc. access to this program.  By using this program,
 the user acknowledges that Gaussian, Inc. is engaged in the
 business of creating and licensing software in the field of
 computational chemistry and represents and warrants to the
 licensee that it is not a competitor of Gaussian, Inc. and that
 it will not use this program in any manner prohibited above.
 ---------------------------------------------------------------
  

 Cite this work as:
 Gaussian 09, Revision D.01,
 M. J. Frisch, G. W. Trucks, H. B. Schlegel, G. E. Scuseria, 
 M. A. Robb, J. R. Cheeseman, G. Scalmani, V. Barone, B. Mennucci, 
 G. A. Petersson, H. Nakatsuji, M. Caricato, X. Li, H. P. Hratchian, 
 A. F. Izmaylov, J. Bloino, G. Zheng, J. L. Sonnenberg, M. Hada, 
 M. Ehara, K. Toyota, R. Fukuda, J. Hasegawa, M. Ishida, T. Nakajima, 
 Y. Honda, O. Kitao, H. Nakai, T. Vreven, J. A. Montgomery, Jr., 
 J. E. Peralta, F. Ogliaro, M. Bearpark, J. J. Heyd, E. Brothers, 
 K. N. Kudin, V. N. Staroverov, T. Keith, R. Kobayashi, J. Normand, 
 K. Raghavachari, A. Rendell, J. C. Burant, S. S. Iyengar, J. Tomasi, 
 M. Cossi, N. Rega, J. M. Millam, M. Klene, J. E. Knox, J. B. Cross, 
 V. Bakken, C. Adamo, J. Jaramillo, R. Gomperts, R. E. Stratmann, 
 O. Yazyev, A. J. Austin, R. Cammi, C. Pomelli, J. W. Ochterski, 
 R. L. Martin, K. Morokuma, V. G. Zakrzewski, G. A. Voth, 
 P. Salvador, J. J. Dannenberg, S. Dapprich, A. D. Daniels, 
 O. Farkas, J. B. Foresman, J. V. Ortiz, J. Cioslowski, 
 and D. J. Fox, Gaussian, Inc., Wallingford CT, 2013.
 
 ******************************************
 Gaussian 09:  EM64L-G09RevD.01 24-Apr-2013
                17-May-2024 
 ******************************************
 %chk=job12
 %nproc=24
 Will use up to   24 processors via shared memory.
 %mem=48000mb
 --------------------------
 #P PBE1PBE/GEN pop=nboread
 --------------------------
 1/38=1/1;
 2/12=2,17=6,18=5,40=1/2;
 3/5=7,11=2,16=1,25=1,30=1,74=-13/1,2,3;
 4//1;
 5/5=2,38=5/2;
 6/7=2,8=2,9=2,10=2,28=1,40=2/1,7;
 99/5=1,9=1/99;
 Leave Link    1 at Fri May 17 10:19:32 2024, MaxMem=  6291456000 cpu:         1.2
 (Enter /home/madghost/g09/l101.exe)
 ---
 c2h
 ---
 Symbolic Z-matrix:
 Charge =  0 Multiplicity = 1
 6                    -0.55648  -1.38318  -0.19251 
 1                    -0.36137  -2.4032   -0.52518 
 1                    -0.29537  -0.70634  -1.01389 
 6                     0.27815  -1.03131   1.04481 
 1                    -0.3948   -0.68902   1.83123 
 1                     0.82101  -1.90351   1.42268 
 8                    -1.943    -1.3591    0.06052 
 8                     1.17483   0.03945   0.83345 
 6                    -2.56047  -0.15623   0.18624 
 6                    -3.93868  -0.20519   0.38507 
 6                    -1.91134   1.07217   0.12614 
 6                    -4.6604    0.96547   0.51356 
 6                    -2.65357   2.2403    0.25641 
 6                    -4.02295   2.19921   0.44849 
 1                    -4.42132  -1.1741    0.42957 
 1                    -0.83907   1.13523  -0.00306 
 1                    -5.73278   0.91496   0.66431 
 1                    -2.14032   3.19412   0.20988 
 1                    -4.59065   3.11601   0.55015 
 6                     2.29178  -0.18669   0.09946 
 6                     2.61373  -1.40375  -0.49106 
 6                     3.14933   0.90149  -0.0492 
 6                     3.79134  -1.52167  -1.21962 
 6                     4.31502   0.76923  -0.77812 
 6                     4.6462   -0.44453  -1.36954 
 1                     1.96168  -2.26192  -0.39627 
 1                     2.88047   1.83977   0.42092 
 1                     4.03317  -2.47459  -1.67646 
 1                     4.97412   1.62319  -0.88523 
 1                     5.56052  -0.54527  -1.94116 
 
 NAtoms=     30 NQM=       30 NQMF=       0 NMMI=      0 NMMIF=      0
                NMic=       0 NMicF=      0.
                    Isotopes and Nuclear Properties:
 (Nuclear quadrupole moments (NQMom) in fm**2, nuclear magnetic moments (NMagM)
  in nuclear magnetons)

  Atom         1           2           3           4           5           6           7           8           9          10
 IAtWgt=          12           1           1          12           1           1          16          16          12          12
 AtmWgt=  12.0000000   1.0078250   1.0078250  12.0000000   1.0078250   1.0078250  15.9949146  15.9949146  12.0000000  12.0000000
 NucSpn=           0           1           1           0           1           1           0           0           0           0
 AtZEff=   0.0000000   0.0000000   0.0000000   0.0000000   0.0000000   0.0000000   0.0000000   0.0000000   0.0000000   0.0000000
 NQMom=    0.0000000   0.0000000   0.0000000   0.0000000   0.0000000   0.0000000   0.0000000   0.0000000   0.0000000   0.0000000
 NMagM=    0.0000000   2.7928460   2.7928460   0.0000000   2.7928460   2.7928460   0.0000000   0.0000000   0.0000000   0.0000000
 AtZNuc=   6.0000000   1.0000000   1.0000000   6.0000000   1.0000000   1.0000000   8.0000000   8.0000000   6.0000000   6.0000000

  Atom        11          12          13          14          15          16          17          18          19          20
 IAtWgt=          12          12          12          12           1           1           1           1           1          12
 AtmWgt=  12.0000000  12.0000000  12.0000000  12.0000000   1.0078250   1.0078250   1.0078250   1.0078250   1.0078250  12.0000000
 NucSpn=           0           0           0           0           1           1           1           1           1           0
 AtZEff=   0.0000000   0.0000000   0.0000000   0.0000000   0.0000000   0.0000000   0.0000000   0.0000000   0.0000000   0.0000000
 NQMom=    0.0000000   0.0000000   0.0000000   0.0000000   0.0000000   0.0000000   0.0000000   0.0000000   0.0000000   0.0000000
 NMagM=    0.0000000   0.0000000   0.0000000   0.0000000   2.7928460   2.7928460   2.7928460   2.7928460   2.7928460   0.0000000
 AtZNuc=   6.0000000   6.0000000   6.0000000   6.0000000   1.0000000   1.0000000   1.0000000   1.0000000   1.0000000   6.0000000

  Atom        21          22          23          24          25          26          27          28          29          30
 IAtWgt=          12          12          12          12          12           1           1           1           1           1
 AtmWgt=  12.0000000  12.0000000  12.0000000  12.0000000  12.0000000   1.0078250   1.0078250   1.0078250   1.0078250   1.0078250
 NucSpn=           0           0           0           0           0           1           1           1           1           1
 AtZEff=   0.0000000   0.0000000   0.0000000   0.0000000   0.0000000   0.0000000   0.0000000   0.0000000   0.0000000   0.0000000
 NQMom=    0.0000000   0.0000000   0.0000000   0.0000000   0.0000000   0.0000000   0.0000000   0.0000000   0.0000000   0.0000000
 NMagM=    0.0000000   0.0000000   0.0000000   0.0000000   0.0000000   2.7928460   2.7928460   2.7928460   2.7928460   2.7928460
 AtZNuc=   6.0000000   6.0000000   6.0000000   6.0000000   6.0000000   1.0000000   1.0000000   1.0000000   1.0000000   1.0000000
 Leave Link  101 at Fri May 17 10:19:32 2024, MaxMem=  6291456000 cpu:         2.4
 (Enter /home/madghost/g09/l202.exe)
                          Input orientation:                          
 ---------------------------------------------------------------------
 Center     Atomic      Atomic             Coordinates (Angstroms)
 Number     Number       Type             X           Y           Z
 ---------------------------------------------------------------------
      1          6           0       -0.556478   -1.383181   -0.192514
      2          1           0       -0.361372   -2.403202   -0.525184
      3          1           0       -0.295367   -0.706340   -1.013892
      4          6           0        0.278146   -1.031314    1.044809
      5          1           0       -0.394803   -0.689023    1.831234
      6          1           0        0.821014   -1.903508    1.422677
      7          8           0       -1.943002   -1.359099    0.060521
      8          8           0        1.174832    0.039453    0.833454
      9          6           0       -2.560468   -0.156233    0.186244
     10          6           0       -3.938676   -0.205191    0.385074
     11          6           0       -1.911341    1.072167    0.126142
     12          6           0       -4.660396    0.965474    0.513556
     13          6           0       -2.653566    2.240295    0.256405
     14          6           0       -4.022946    2.199205    0.448489
     15          1           0       -4.421323   -1.174099    0.429568
     16          1           0       -0.839067    1.135234   -0.003061
     17          1           0       -5.732779    0.914957    0.664314
     18          1           0       -2.140321    3.194118    0.209875
     19          1           0       -4.590653    3.116008    0.550146
     20          6           0        2.291780   -0.186685    0.099456
     21          6           0        2.613728   -1.403753   -0.491058
     22          6           0        3.149331    0.901494   -0.049198
     23          6           0        3.791344   -1.521674   -1.219622
     24          6           0        4.315016    0.769229   -0.778121
     25          6           0        4.646204   -0.444527   -1.369542
     26          1           0        1.961682   -2.261917   -0.396271
     27          1           0        2.880465    1.839766    0.420919
     28          1           0        4.033170   -2.474592   -1.676456
     29          1           0        4.974120    1.623192   -0.885228
     30          1           0        5.560518   -0.545265   -1.941155
 ---------------------------------------------------------------------
                    Distance matrix (angstroms):
                    1          2          3          4          5
     1  C    0.000000
     2  H    1.090495   0.000000
     3  H    1.095881   1.767069   0.000000
     4  C    1.533420   2.180811   2.161660   0.000000
     5  H    2.145589   2.914144   2.846916   1.090178   0.000000
     6  H    2.185650   2.332787   2.935368   1.094629   1.766382
     7  O    1.409630   1.983622   2.072476   2.451482   2.445679
     8  O    2.464535   3.189417   2.475960   1.412536   1.997497
     9  C    2.380091   3.223511   2.621760   3.092027   2.771274
    10  C    3.627745   4.296152   3.934712   4.347335   3.858045
    11  C    2.822398   3.860676   2.659725   3.172134   2.882536
    12  C    4.780885   5.559547   4.917473   5.353372   4.761189
    13  C    4.210568   5.237089   3.982137   4.463176   4.020323
    14  C    5.026010   5.961318   4.947282   5.412138   4.839139
    15  H    3.920169   4.348040   4.396122   4.741721   4.291017
    16  H    2.541292   3.608509   2.169973   2.653324   2.624866
    17  H    5.727974   6.424726   5.916961   6.329610   5.694598
    18  H    4.860261   5.919034   4.484979   4.939673   4.555702
    19  H    6.088416   7.035967   5.958695   6.414840   5.807289
    20  C    3.103131   3.513166   2.864073   2.379456   3.235603
    21  C    3.184299   3.138675   3.036869   2.820025   3.867187
    22  C    4.355835   4.844854   3.921952   3.629918   4.315861
    23  C    4.469641   4.301672   4.172326   4.208404   5.246414
    24  C    5.357915   5.656580   4.846496   4.781354   5.578318
    25  C    5.416121   5.442900   4.961266   5.025270   5.976328
    26  H    2.674850   2.330914   2.809901   2.534835   3.603997
    27  H    4.751449   5.422859   4.315929   3.924844   4.371629
    28  H    4.945516   4.543404   4.722493   4.856803   5.924449
    29  H    6.332902   6.693949   5.762878   5.729190   6.445994
    30  H    6.416969   6.365979   5.931033   6.087338   7.051059
                    6          7          8          9         10
     6  H    0.000000
     7  O    3.129159   0.000000
     8  O    2.060939   3.503464   0.000000
     9  C    4.002019   1.357924   3.796003   0.000000
    10  C    5.159026   2.327993   5.138955   1.393337   0.000000
    11  C    4.242807   2.432357   3.330353   1.390663   2.410140
    12  C    6.253272   3.604596   5.916903   2.403135   1.381247
    13  C    5.532088   3.674086   4.453462   2.399362   2.765586
    14  C    6.422246   4.139833   5.641775   2.784906   2.406708
    15  H    5.385202   2.512468   5.740451   2.134956   1.083379
    16  H    3.744670   2.728445   2.440550   2.160311   3.399259
    17  H    7.174334   4.460752   6.964927   3.382241   2.133427
    18  H    6.018819   4.559937   4.618550   3.376675   3.849685
    19  H    7.432563   5.222679   6.541122   3.868028   3.388611
    20  C    2.619456   4.394252   1.355531   4.853120   6.237027
    21  C    2.669449   4.590209   2.430555   5.365384   6.718494
    22  C    3.931350   5.572627   2.328269   5.811714   7.187015
    23  C    3.993795   5.877748   3.674013   6.647285   8.003836
    24  C    4.918850   6.663024   3.604234   7.004196   8.392017
    25  C    4.955521   6.804348   4.139789   7.378327   8.765622
    26  H    2.176730   4.033646   2.725373   5.022257   6.297209
    27  H    4.388275   5.799005   2.514060   5.800245   7.119257
    28  H    4.499856   6.322661   4.559624   7.233291   8.541102
    29  H    5.917122   7.591777   4.460570   7.815652   9.186652
    30  H    5.968508   7.808447   5.222508   8.404022   9.785790
                   11         12         13         14         15
    11  C    0.000000
    12  C    2.778269   0.000000
    13  C    1.390104   2.391372   0.000000
    14  C    2.415160   1.390204   1.383397   0.000000
    15  H    3.381980   2.154526   3.848771   3.396799   0.000000
    16  H    1.081870   3.859827   2.140301   3.387184   4.284010
    17  H    3.862348   1.084106   3.377049   2.149279   2.477736
    18  H    2.135912   3.377848   1.084142   2.142677   4.932804
    19  H    3.396436   2.151976   2.146034   1.083122   4.295140
    20  C    4.387670   7.059157   5.511017   6.759442   6.793358
    21  C    5.194936   7.715916   6.448424   7.609829   7.098749
    22  C    5.066584   7.830238   5.963170   7.305703   7.864611
    23  C    6.407785   8.978960   7.607097   8.814231   8.383826
    24  C    6.298967   9.070003   7.196903   8.548159   9.030983
    25  C    6.894841   9.599321   7.945981   9.243848   9.273032
    26  H    5.137055   7.422651   6.480464   7.512057   6.527489
    27  H    4.861842   7.591940   5.550945   6.912817   7.899340
    28  H    7.153046   9.602515   8.407054   9.553051   8.809374
    29  H    6.981122   9.757719   7.737295   9.113605   9.890797
    30  H    7.919500  10.619558   8.947614  10.251112  10.278760
                   16         17         18         19         20
    16  H    0.000000
    17  H    4.943918   0.000000
    18  H    2.444915   4.278650   0.000000
    19  H    4.278306   2.482360   2.475078   0.000000
    20  C    3.400027   8.119497   5.575441   7.647142   0.000000
    21  C    4.313512   8.739307   6.650767   8.568282   1.390544
    22  C    3.995508   8.910733   5.770932   8.072833   1.393422
    23  C    5.475389  10.009760   7.711472   9.741563   2.402260
    24  C    5.224868  10.151849   6.966175   9.304977   2.403622
    25  C    5.869507  10.663398   7.860739  10.083756   2.787068
    26  H    4.420344   8.391788   6.852894   8.529412   2.159004
    27  H    3.809336   8.666169   5.204527   7.580442   2.134571
    28  H    6.290452  10.599151   8.590955  10.515840   3.379471
    29  H    5.899955  10.841603   7.367654   9.786403   3.382337
    30  H    6.894561  11.681578   8.826825  11.075097   3.870054
                   21         22         23         24         25
    21  C    0.000000
    22  C    2.407545   0.000000
    23  C    1.389781   2.766553   0.000000
    24  C    2.774642   1.381175   2.391107   0.000000
    25  C    2.413049   2.407428   1.383296   1.390204   0.000000
    26  H    1.081940   3.396784   2.138581   3.856402   3.384793
    27  H    3.379832   1.083353   3.849721   2.154457   3.397290
    28  H    2.136979   3.850597   1.084080   3.377694   2.142702
    29  H    3.858655   2.132991   3.376531   1.084040   2.148849
    30  H    3.394607   3.389164   2.145684   2.152166   1.082986
                   26         27         28         29         30
    26  H    0.000000
    27  H    4.282028   0.000000
    28  H    2.444415   4.933700   0.000000
    29  H    4.940439   2.477159   4.278231   0.000000
    30  H    4.276118   4.295399   2.474906   2.482146   0.000000
 Stoichiometry    C14H14O2
 Framework group  C1[X(C14H14O2)]
 Deg. of freedom    84
 Full point group                 C1      NOp   1
 Largest Abelian subgroup         C1      NOp   1
 Largest concise Abelian subgroup C1      NOp   1
                         Standard orientation:                         
 ---------------------------------------------------------------------
 Center     Atomic      Atomic             Coordinates (Angstroms)
 Number     Number       Type             X           Y           Z
 ---------------------------------------------------------------------
      1          6           0       -0.285207   -1.459685   -0.218854
      2          1           0        0.122674   -2.435719   -0.483749
      3          1           0       -0.024034   -0.758134   -1.019211
      4          6           0        0.291367   -0.956792    1.110069
      5          1           0       -0.535732   -0.724280    1.781137
      6          1           0        0.911063   -1.719783    1.591768
      7          8           0       -1.678289   -1.668047   -0.164426
      8          8           0        1.018771    0.247930    0.988468
      9          6           0       -2.498565   -0.585887   -0.170297
     10          6           0       -3.863558   -0.865458   -0.165694
     11          6           0       -2.060712    0.733990   -0.182763
     12          6           0       -4.780578    0.167326   -0.182340
     13          6           0       -2.997569    1.760818   -0.200440
     14          6           0       -4.354282    1.490417   -0.201553
     15          1           0       -4.179861   -1.901576   -0.154613
     16          1           0       -1.006558    0.976416   -0.162025
     17          1           0       -5.840043   -0.062497   -0.182220
     18          1           0       -2.648620    2.787234   -0.208687
     19          1           0       -5.075026    2.298828   -0.213915
     20          6           0        2.252079    0.205781    0.427542
     21          6           0        2.853735   -0.945977   -0.067510
     22          6           0        2.929342    1.421768    0.361843
     23          6           0        4.127461   -0.871132   -0.618430
     24          6           0        4.193864    1.480450   -0.190593
     25          6           0        4.804114    0.333512   -0.685362
     26          1           0        2.346522   -1.901089   -0.034496
     27          1           0        2.443196    2.306362    0.755300
     28          1           0        4.587741   -1.774587   -1.002021
     29          1           0        4.710442    2.432473   -0.234652
     30          1           0        5.795434    0.382502   -1.118655
 ---------------------------------------------------------------------
 Rotational constants (GHZ):      1.4751499      0.2332296      0.2112269
 Leave Link  202 at Fri May 17 10:19:32 2024, MaxMem=  6291456000 cpu:         0.1
 (Enter /home/madghost/g09/l301.exe)
 General basis read from cards:  (5D, 7F)
 Centers:       2      3      5      6     15     16     17     18     19     26
 Centers:      27     28     29     30
 S 3 1.00
     Exponent=  3.4061341000D+01 Coefficients=  6.0251978000D-03
     Exponent=  5.1235746000D+00 Coefficients=  4.5021094000D-02
     Exponent=  1.1646626000D+00 Coefficients=  2.0189726000D-01
 S 1 1.00
     Exponent=  3.2723041000D-01 Coefficients=  1.0000000000D+00
 S 1 1.00
     Exponent=  1.0307241000D-01 Coefficients=  1.0000000000D+00
 P 1 1.00
     Exponent=  1.4070000000D+00 Coefficients=  1.0000000000D+00
 P 1 1.00
     Exponent=  3.8800000000D-01 Coefficients=  1.0000000000D+00
 D 1 1.00
     Exponent=  1.0570000000D+00 Coefficients=  1.0000000000D+00
 ****
 Centers:       1      4      9     10     11     12     13     14     20     21
 Centers:      22     23     24     25
 S 6 1.00
     Exponent=  1.3575349682D+04 Coefficients=  2.2245814352D-04
     Exponent=  2.0352333680D+03 Coefficients=  1.7232738252D-03
     Exponent=  4.6322562359D+02 Coefficients=  8.9255715314D-03
     Exponent=  1.3120019598D+02 Coefficients=  3.5727984502D-02
     Exponent=  4.2853015891D+01 Coefficients=  1.1076259931D-01
     Exponent=  1.5584185766D+01 Coefficients=  2.4295627626D-01
 S 2 1.00
     Exponent=  6.2067138508D+00 Coefficients=  4.1440263448D-01
     Exponent=  2.5764896527D+00 Coefficients=  2.3744968655D-01
 S 1 1.00
     Exponent=  5.7696339419D-01 Coefficients=  1.0000000000D+00
 S 1 1.00
     Exponent=  2.2972831358D-01 Coefficients=  1.0000000000D+00
 S 1 1.00
     Exponent=  9.5164440028D-02 Coefficients=  1.0000000000D+00
 P 4 1.00
     Exponent=  3.4697232244D+01 Coefficients=  5.3333657805D-03
     Exponent=  7.9582622826D+00 Coefficients=  3.5864109092D-02
     Exponent=  2.3780826883D+00 Coefficients=  1.4215873329D-01
     Exponent=  8.1433208183D-01 Coefficients=  3.4270471845D-01
 P 1 1.00
     Exponent=  2.8887547253D-01 Coefficients=  4.6445822433D-01
 P 1 1.00
     Exponent=  1.0056823671D-01 Coefficients=  2.4955789874D-01
 D 1 1.00
     Exponent=  1.0970000000D+00 Coefficients=  1.0000000000D+00
 D 1 1.00
     Exponent=  3.1800000000D-01 Coefficients=  1.0000000000D+00
 F 1 1.00
     Exponent=  7.6100000000D-01 Coefficients=  1.0000000000D+00
 ****
 Centers:       7      8
 S 6 1.00
     Exponent=  2.7032382631D+04 Coefficients=  2.1726302465D-04
     Exponent=  4.0523871392D+03 Coefficients=  1.6838662199D-03
     Exponent=  9.2232722710D+02 Coefficients=  8.7395616265D-03
     Exponent=  2.6124070989D+02 Coefficients=  3.5239968808D-02
     Exponent=  8.5354641351D+01 Coefficients=  1.1153519115D-01
     Exponent=  3.1035035245D+01 Coefficients=  2.5588953961D-01
 S 2 1.00
     Exponent=  1.2260860728D+01 Coefficients=  3.9768730901D-01
     Exponent=  4.9987076005D+00 Coefficients=  2.4627849430D-01
 S 1 1.00
     Exponent=  1.1703108158D+00 Coefficients=  1.0000000000D+00
 S 1 1.00
     Exponent=  4.6474740994D-01 Coefficients=  1.0000000000D+00
 S 1 1.00
     Exponent=  1.8504536357D-01 Coefficients=  1.0000000000D+00
 P 4 1.00
     Exponent=  6.3274954801D+01 Coefficients=  6.0685103418D-03
     Exponent=  1.4627049379D+01 Coefficients=  4.1912575824D-02
     Exponent=  4.4501223456D+00 Coefficients=  1.6153841088D-01
     Exponent=  1.5275799647D+00 Coefficients=  3.5706951311D-01
 P 1 1.00
     Exponent=  5.2935117943D-01 Coefficients=  4.4794207502D-01
 P 1 1.00
     Exponent=  1.7478421270D-01 Coefficients=  2.4446069663D-01
 D 1 1.00
     Exponent=  2.3140000000D+00 Coefficients=  1.0000000000D+00
 D 1 1.00
     Exponent=  6.4500000000D-01 Coefficients=  1.0000000000D+00
 F 1 1.00
     Exponent=  1.4280000000D+00 Coefficients=  1.0000000000D+00
 ****
 Ernie: Thresh=  0.10000D-02 Tol=  0.10000D-05 Strict=F.
 There are   786 symmetry adapted cartesian basis functions of A   symmetry.
 There are   692 symmetry adapted basis functions of A   symmetry.
   692 basis functions,  1054 primitive gaussians,   786 cartesian basis functions
    57 alpha electrons       57 beta electrons
       nuclear repulsion energy      1009.4040801639 Hartrees.
 IExCor= 1009 DFT=T Ex+Corr=PBE1PBE ExCW=0 ScaHFX=  0.250000
 ScaDFX=  0.750000  0.750000  1.000000  1.000000 ScalE2=  1.000000  1.000000
 IRadAn=      0 IRanWt=     -1 IRanGd=            0 ICorTp=0 IEmpDi=  4
 NAtoms=   30 NActive=   30 NUniq=   30 SFac= 1.00D+00 NAtFMM=   60 NAOKFM=F Big=F
 Integral buffers will be    131072 words long.
 Raffenetti 2 integral format.
 Two-electron integral symmetry is turned on.
 Leave Link  301 at Fri May 17 10:19:33 2024, MaxMem=  6291456000 cpu:         2.0
 (Enter /home/madghost/g09/l302.exe)
 NPDir=0 NMtPBC=     1 NCelOv=     1 NCel=       1 NClECP=     1 NCelD=      1
         NCelK=      1 NCelE2=     1 NClLst=     1 CellRange=     0.0.
 One-electron integrals computed using PRISM.
 NBasis=   692 RedAO= T EigKep=  8.61D-06  NBF=   692
 NBsUse=   692 1.00D-06 EigRej= -1.00D+00 NBFU=   692
 Precomputing XC quadrature grid using
 IXCGrd= 4 IRadAn=           0 IRanWt=          -1 IRanGd=           0 AccXCQ= 0.00D+00.
 Generated NRdTot=       0 NPtTot=           0 NUsed=           0 NTot=          32
 NSgBfM=   764   764   764   764   764 MxSgAt=    30 MxSgA2=    30.
 Leave Link  302 at Fri May 17 10:19:34 2024, MaxMem=  6291456000 cpu:        44.0
 (Enter /home/madghost/g09/l303.exe)
 DipDrv:  MaxL=1.
 Leave Link  303 at Fri May 17 10:19:35 2024, MaxMem=  6291456000 cpu:         3.4
 (Enter /home/madghost/g09/l401.exe)
 ExpMin= 9.52D-02 ExpMax= 2.70D+04 ExpMxC= 9.22D+02 IAcc=2 IRadAn=         4 AccDes= 0.00D+00
 Harris functional with IExCor= 1009 and IRadAn=       4 diagonalized for initial guess.
 HarFok:  IExCor= 1009 AccDes= 0.00D+00 IRadAn=         4 IDoV= 1 UseB2=F ITyADJ=14
 ICtDFT=  3500011 ScaDFX=  1.000000  1.000000  1.000000  1.000000
 FoFCou: FMM=F IPFlag=           0 FMFlag=      100000 FMFlg1=           0
         NFxFlg=           0 DoJE=T BraDBF=F KetDBF=T FulRan=T
         wScrn=  0.000000 ICntrl=     500 IOpCl=  0 I1Cent=   200000004 NGrid=           0
         NMat0=    1 NMatS0=      1 NMatT0=    0 NMatD0=    1 NMtDS0=    0 NMtDT0=    0
 Petite list used in FoFCou.
 Harris En= -692.025924790427    
 JPrj=0 DoOrth=F DoCkMO=F.
 Leave Link  401 at Fri May 17 10:19:39 2024, MaxMem=  6291456000 cpu:        94.3
 (Enter /home/madghost/g09/l502.exe)
 Closed shell SCF:
 Using DIIS extrapolation, IDIIS=  1040.
 Integral symmetry usage will be decided dynamically.
 IVT=     1896530 IEndB=     1896530 NGot=  6291456000 MDV=  6290194693
 LenX=  6290194693 LenY=  6289576111
 Requested convergence on RMS density matrix=1.00D-08 within 128 cycles.
 Requested convergence on MAX density matrix=1.00D-06.
 Requested convergence on             energy=1.00D-06.
 No special actions if energy rises.
 Fock matrices will be formed incrementally for  20 cycles.
 Integral accuracy reduced to 1.0D-05 until final iterations.

 Cycle   1  Pass 0  IDiag  1:
 FoFJK:  IHMeth= 1 ICntrl=       0 DoSepK=F KAlg= 0 I1Cent=   0 FoldK=F
 IRaf= 770000000 NMat=   1 IRICut=       1 DoRegI=T DoRafI=F ISym2E= 0.
 FoFCou: FMM=F IPFlag=           0 FMFlag=      100000 FMFlg1=           0
         NFxFlg=           0 DoJE=F BraDBF=F KetDBF=F FulRan=T
         wScrn=  0.000000 ICntrl=       0 IOpCl=  0 I1Cent=           0 NGrid=           0
         NMat0=    1 NMatS0=      1 NMatT0=    0 NMatD0=    1 NMtDS0=    0 NMtDT0=    0
 Symmetry not used in FoFCou.
 E= -691.423632416925    
 DIIS: error= 2.33D-02 at cycle   1 NSaved=   1.
 NSaved= 1 IEnMin= 1 EnMin= -691.423632416925     IErMin= 1 ErrMin= 2.33D-02
 ErrMax= 2.33D-02  0.00D+00 EMaxC= 1.00D-01 BMatC= 3.90D-01 BMatP= 3.90D-01
 IDIUse=3 WtCom= 7.67D-01 WtEn= 2.33D-01
 Coeff-Com:  0.100D+01
 Coeff-En:   0.100D+01
 Coeff:      0.100D+01
 Gap=     0.259 Goal=   None    Shift=    0.000
 GapD=    0.259 DampG=1.000 DampE=0.500 DampFc=0.5000 IDamp=-1.
 Damping current iteration by 5.00D-01
 RMSDP=1.14D+02 MaxDP=7.32D+03              OVMax= 9.91D-01

 Problem detected with inexpensive integrals.
 Switching to full accuracy and repeating last cycle.
 Cycle   2  Pass 1  IDiag  1:
 E= -691.423654658078     Delta-E=       -0.000022241152 Rises=F Damp=F
 DIIS: error= 2.33D-02 at cycle   1 NSaved=   1.
 NSaved= 1 IEnMin= 1 EnMin= -691.423654658078     IErMin= 1 ErrMin= 2.33D-02
 ErrMax= 2.33D-02  0.00D+00 EMaxC= 1.00D-01 BMatC= 3.90D-01 BMatP= 3.90D-01
 IDIUse=3 WtCom= 7.67D-01 WtEn= 2.33D-01
 Coeff-Com:  0.100D+01
 Coeff-En:   0.100D+01
 Coeff:      0.100D+01
 Gap=     0.259 Goal=   None    Shift=    0.000
 GapD=    0.259 DampG=1.000 DampE=0.500 DampFc=0.5000 IDamp=-1.
 Damping current iteration by 5.00D-01
 RMSDP=2.27D-03 MaxDP=1.53D-01 DE=-2.22D-05 OVMax= 2.03D-01

 Cycle   3  Pass 1  IDiag  1:
 RMSU=  1.14D-03    CP:  9.92D-01
 E= -691.590915160642     Delta-E=       -0.167260502564 Rises=F Damp=T
 DIIS: error= 4.16D-03 at cycle   2 NSaved=   2.
 NSaved= 2 IEnMin= 2 EnMin= -691.590915160642     IErMin= 2 ErrMin= 4.16D-03
 ErrMax= 4.16D-03  0.00D+00 EMaxC= 1.00D-01 BMatC= 2.87D-02 BMatP= 3.90D-01
 IDIUse=3 WtCom= 9.58D-01 WtEn= 4.16D-02
 Coeff-Com: -0.102D-01 0.101D+01
 Coeff-En:   0.477D-01 0.952D+00
 Coeff:     -0.780D-02 0.101D+01
 Gap=     0.290 Goal=   None    Shift=    0.000
 GapD=    0.290 DampG=1.000 DampE=1.000 DampFc=1.0000 IDamp=-1.
 RMSDP=5.99D-04 MaxDP=2.72D-02 DE=-1.67D-01 OVMax= 1.47D-01

 Cycle   4  Pass 1  IDiag  1:
 RMSU=  5.94D-04    CP:  9.91D-01  1.06D+00
 E= -691.770051742634     Delta-E=       -0.179136581993 Rises=F Damp=F
 DIIS: error= 4.82D-03 at cycle   3 NSaved=   3.
 NSaved= 3 IEnMin= 3 EnMin= -691.770051742634     IErMin= 2 ErrMin= 4.16D-03
 ErrMax= 4.82D-03  0.00D+00 EMaxC= 1.00D-01 BMatC= 2.01D-02 BMatP= 2.87D-02
 IDIUse=3 WtCom= 9.52D-01 WtEn= 4.82D-02
 Coeff-Com: -0.707D-01 0.478D+00 0.593D+00
 Coeff-En:   0.000D+00 0.000D+00 0.100D+01
 Coeff:     -0.673D-01 0.455D+00 0.612D+00
 Gap=     0.229 Goal=   None    Shift=    0.000
 RMSDP=4.82D-04 MaxDP=3.95D-02 DE=-1.79D-01 OVMax= 6.67D-02

 Cycle   5  Pass 1  IDiag  1:
 RMSU=  2.99D-04    CP:  9.83D-01  8.38D-01  5.39D-01
 E= -691.784026969120     Delta-E=       -0.013975226486 Rises=F Damp=F
 DIIS: error= 3.38D-03 at cycle   4 NSaved=   4.
 NSaved= 4 IEnMin= 4 EnMin= -691.784026969120     IErMin= 4 ErrMin= 3.38D-03
 ErrMax= 3.38D-03  0.00D+00 EMaxC= 1.00D-01 BMatC= 6.56D-03 BMatP= 2.01D-02
 IDIUse=3 WtCom= 9.66D-01 WtEn= 3.38D-02
 Coeff-Com: -0.433D-01 0.153D+00 0.392D+00 0.498D+00
 Coeff-En:   0.000D+00 0.000D+00 0.266D+00 0.734D+00
 Coeff:     -0.418D-01 0.148D+00 0.388D+00 0.506D+00
 Gap=     0.220 Goal=   None    Shift=    0.000
 RMSDP=2.21D-04 MaxDP=1.70D-02 DE=-1.40D-02 OVMax= 2.67D-02

 Cycle   6  Pass 1  IDiag  1:
 RMSU=  5.43D-05    CP:  9.85D-01  9.60D-01  7.19D-01  5.93D-01
 E= -691.790601347825     Delta-E=       -0.006574378705 Rises=F Damp=F
 DIIS: error= 5.14D-04 at cycle   5 NSaved=   5.
 NSaved= 5 IEnMin= 5 EnMin= -691.790601347825     IErMin= 5 ErrMin= 5.14D-04
 ErrMax= 5.14D-04  0.00D+00 EMaxC= 1.00D-01 BMatC= 1.74D-04 BMatP= 6.56D-03
 IDIUse=3 WtCom= 9.95D-01 WtEn= 5.14D-03
 Coeff-Com: -0.127D-01 0.297D-01 0.114D+00 0.216D+00 0.652D+00
 Coeff-En:   0.000D+00 0.000D+00 0.000D+00 0.000D+00 0.100D+01
 Coeff:     -0.126D-01 0.296D-01 0.114D+00 0.215D+00 0.654D+00
 Gap=     0.220 Goal=   None    Shift=    0.000
 RMSDP=1.97D-05 MaxDP=9.42D-04 DE=-6.57D-03 OVMax= 3.77D-03

 Cycle   7  Pass 1  IDiag  1:
 RMSU=  1.42D-05    CP:  9.85D-01  9.59D-01  7.22D-01  6.14D-01  7.78D-01
 E= -691.790759374331     Delta-E=       -0.000158026506 Rises=F Damp=F
 DIIS: error= 1.17D-04 at cycle   6 NSaved=   6.
 NSaved= 6 IEnMin= 6 EnMin= -691.790759374331     IErMin= 6 ErrMin= 1.17D-04
 ErrMax= 1.17D-04  0.00D+00 EMaxC= 1.00D-01 BMatC= 1.83D-05 BMatP= 1.74D-04
 IDIUse=3 WtCom= 9.99D-01 WtEn= 1.17D-03
 Coeff-Com: -0.482D-02 0.890D-02 0.438D-01 0.932D-01 0.354D+00 0.505D+00
 Coeff-En:   0.000D+00 0.000D+00 0.000D+00 0.000D+00 0.000D+00 0.100D+01
 Coeff:     -0.481D-02 0.889D-02 0.437D-01 0.931D-01 0.353D+00 0.506D+00
 Gap=     0.220 Goal=   None    Shift=    0.000
 RMSDP=8.21D-06 MaxDP=8.72D-04 DE=-1.58D-04 OVMax= 8.86D-04

 Cycle   8  Pass 1  IDiag  1:
 RMSU=  4.55D-06    CP:  9.85D-01  9.56D-01  7.20D-01  6.23D-01  8.00D-01
                    CP:  6.54D-01
 E= -691.790776088434     Delta-E=       -0.000016714103 Rises=F Damp=F
 DIIS: error= 1.99D-05 at cycle   7 NSaved=   7.
 NSaved= 7 IEnMin= 7 EnMin= -691.790776088434     IErMin= 7 ErrMin= 1.99D-05
 ErrMax= 1.99D-05  0.00D+00 EMaxC= 1.00D-01 BMatC= 8.52D-07 BMatP= 1.83D-05
 IDIUse=1 WtCom= 1.00D+00 WtEn= 0.00D+00
 Coeff-Com: -0.957D-03 0.110D-02 0.877D-02 0.204D-01 0.957D-01 0.223D+00
 Coeff-Com:  0.652D+00
 Coeff:     -0.957D-03 0.110D-02 0.877D-02 0.204D-01 0.957D-01 0.223D+00
 Coeff:      0.652D+00
 Gap=     0.220 Goal=   None    Shift=    0.000
 RMSDP=2.56D-06 MaxDP=2.79D-04 DE=-1.67D-05 OVMax= 2.59D-04

 Cycle   9  Pass 1  IDiag  1:
 RMSU=  1.56D-06    CP:  9.85D-01  9.57D-01  7.22D-01  6.22D-01  7.98D-01
                    CP:  7.24D-01  8.54D-01
 E= -691.790776604552     Delta-E=       -0.000000516118 Rises=F Damp=F
 DIIS: error= 1.28D-05 at cycle   8 NSaved=   8.
 NSaved= 8 IEnMin= 8 EnMin= -691.790776604552     IErMin= 8 ErrMin= 1.28D-05
 ErrMax= 1.28D-05  0.00D+00 EMaxC= 1.00D-01 BMatC= 2.00D-07 BMatP= 8.52D-07
 IDIUse=1 WtCom= 1.00D+00 WtEn= 0.00D+00
 Coeff-Com:  0.936D-04-0.518D-03-0.649D-03-0.707D-03 0.923D-02 0.654D-01
 Coeff-Com:  0.374D+00 0.553D+00
 Coeff:      0.936D-04-0.518D-03-0.649D-03-0.707D-03 0.923D-02 0.654D-01
 Coeff:      0.374D+00 0.553D+00
 Gap=     0.220 Goal=   None    Shift=    0.000
 RMSDP=9.53D-07 MaxDP=6.93D-05 DE=-5.16D-07 OVMax= 1.19D-04

 Cycle  10  Pass 1  IDiag  1:
 RMSU=  6.08D-07    CP:  9.85D-01  9.57D-01  7.22D-01  6.22D-01  8.03D-01
                    CP:  7.26D-01  9.26D-01  6.85D-01
 E= -691.790776785774     Delta-E=       -0.000000181222 Rises=F Damp=F
 DIIS: error= 5.45D-06 at cycle   9 NSaved=   9.
 NSaved= 9 IEnMin= 9 EnMin= -691.790776785774     IErMin= 9 ErrMin= 5.45D-06
 ErrMax= 5.45D-06  0.00D+00 EMaxC= 1.00D-01 BMatC= 9.63D-09 BMatP= 2.00D-07
 IDIUse=1 WtCom= 1.00D+00 WtEn= 0.00D+00
 Coeff-Com:  0.910D-04-0.261D-03-0.749D-03-0.156D-02-0.185D-02 0.128D-01
 Coeff-Com:  0.101D+00 0.243D+00 0.648D+00
 Coeff:      0.910D-04-0.261D-03-0.749D-03-0.156D-02-0.185D-02 0.128D-01
 Coeff:      0.101D+00 0.243D+00 0.648D+00
 Gap=     0.220 Goal=   None    Shift=    0.000
 RMSDP=2.61D-07 MaxDP=2.03D-05 DE=-1.81D-07 OVMax= 4.40D-05

 Cycle  11  Pass 1  IDiag  1:
 RMSU=  1.40D-07    CP:  9.85D-01  9.57D-01  7.22D-01  6.22D-01  8.03D-01
                    CP:  7.33D-01  9.20D-01  7.65D-01  7.70D-01
 E= -691.790776793535     Delta-E=       -0.000000007761 Rises=F Damp=F
 DIIS: error= 2.56D-06 at cycle  10 NSaved=  10.
 NSaved=10 IEnMin=10 EnMin= -691.790776793535     IErMin=10 ErrMin= 2.56D-06
 ErrMax= 2.56D-06  0.00D+00 EMaxC= 1.00D-01 BMatC= 2.70D-09 BMatP= 9.63D-09
 IDIUse=1 WtCom= 1.00D+00 WtEn= 0.00D+00
 Coeff-Com:  0.459D-04-0.105D-03-0.394D-03-0.924D-03-0.222D-02 0.301D-03
 Coeff-Com:  0.171D-01 0.880D-01 0.406D+00 0.492D+00
 Coeff:      0.459D-04-0.105D-03-0.394D-03-0.924D-03-0.222D-02 0.301D-03
 Coeff:      0.171D-01 0.880D-01 0.406D+00 0.492D+00
 Gap=     0.220 Goal=   None    Shift=    0.000
 RMSDP=9.82D-08 MaxDP=8.92D-06 DE=-7.76D-09 OVMax= 1.77D-05

 Cycle  12  Pass 1  IDiag  1:
 RMSU=  4.93D-08    CP:  9.85D-01  9.57D-01  7.22D-01  6.22D-01  8.03D-01
                    CP:  7.32D-01  9.26D-01  7.55D-01  8.37D-01  6.22D-01
 E= -691.790776796019     Delta-E=       -0.000000002484 Rises=F Damp=F
 DIIS: error= 5.83D-07 at cycle  11 NSaved=  11.
 NSaved=11 IEnMin=11 EnMin= -691.790776796019     IErMin=11 ErrMin= 5.83D-07
 ErrMax= 5.83D-07  0.00D+00 EMaxC= 1.00D-01 BMatC= 8.46D-11 BMatP= 2.70D-09
 IDIUse=1 WtCom= 1.00D+00 WtEn= 0.00D+00
 Coeff-Com:  0.772D-05-0.117D-04-0.537D-04-0.176D-03-0.528D-03-0.110D-02
 Coeff-Com: -0.480D-02 0.625D-02 0.815D-01 0.181D+00 0.738D+00
 Coeff:      0.772D-05-0.117D-04-0.537D-04-0.176D-03-0.528D-03-0.110D-02
 Coeff:     -0.480D-02 0.625D-02 0.815D-01 0.181D+00 0.738D+00
 Gap=     0.220 Goal=   None    Shift=    0.000
 RMSDP=2.64D-08 MaxDP=2.30D-06 DE=-2.48D-09 OVMax= 4.81D-06

 Cycle  13  Pass 1  IDiag  1:
 RMSU=  1.52D-08    CP:  9.85D-01  9.57D-01  7.22D-01  6.22D-01  8.03D-01
                    CP:  7.33D-01  9.25D-01  7.61D-01  8.45D-01  6.64D-01
                    CP:  9.17D-01
 E= -691.790776796168     Delta-E=       -0.000000000149 Rises=F Damp=F
 DIIS: error= 1.02D-07 at cycle  12 NSaved=  12.
 NSaved=12 IEnMin=12 EnMin= -691.790776796168     IErMin=12 ErrMin= 1.02D-07
 ErrMax= 1.02D-07  0.00D+00 EMaxC= 1.00D-01 BMatC= 1.67D-11 BMatP= 8.46D-11
 IDIUse=1 WtCom= 1.00D+00 WtEn= 0.00D+00
 Coeff-Com:  0.336D-06 0.243D-05 0.784D-05-0.116D-04-0.907D-04-0.635D-03
 Coeff-Com: -0.437D-02-0.515D-02 0.525D-02 0.507D-01 0.384D+00 0.570D+00
 Coeff:      0.336D-06 0.243D-05 0.784D-05-0.116D-04-0.907D-04-0.635D-03
 Coeff:     -0.437D-02-0.515D-02 0.525D-02 0.507D-01 0.384D+00 0.570D+00
 Gap=     0.220 Goal=   None    Shift=    0.000
 RMSDP=7.95D-09 MaxDP=6.38D-07 DE=-1.49D-10 OVMax= 1.41D-06

 SCF Done:  E(RPBE1PBE) =  -691.790776796     A.U. after   13 cycles
            NFock= 13  Conv=0.80D-08     -V/T= 2.0047
 KE= 6.885804395913D+02 PE=-3.629944955379D+03 EE= 1.240169658827D+03
 Leave Link  502 at Fri May 17 10:26:51 2024, MaxMem=  6291456000 cpu:     10372.6
 (Enter /home/madghost/g09/l601.exe)
 Copying SCF densities to generalized density rwf, IOpCl= 0 IROHF=0.

 **********************************************************************

            Population analysis using the SCF density.

 **********************************************************************

 Orbital symmetries:
       Occupied  (A) (A) (A) (A) (A) (A) (A) (A) (A) (A) (A) (A)
                 (A) (A) (A) (A) (A) (A) (A) (A) (A) (A) (A) (A)
                 (A) (A) (A) (A) (A) (A) (A) (A) (A) (A) (A) (A)
                 (A) (A) (A) (A) (A) (A) (A) (A) (A) (A) (A) (A)
                 (A) (A) (A) (A) (A) (A) (A) (A) (A)
       Virtual   (A) (A) (A) (A) (A) (A) (A) (A) (A) (A) (A) (A)
                 (A) (A) (A) (A) (A) (A) (A) (A) (A) (A) (A) (A)
                 (A) (A) (A) (A) (A) (A) (A) (A) (A) (A) (A) (A)
                 (A) (A) (A) (A) (A) (A) (A) (A) (A) (A) (A) (A)
                 (A) (A) (A) (A) (A) (A) (A) (A) (A) (A) (A) (A)
                 (A) (A) (A) (A) (A) (A) (A) (A) (A) (A) (A) (A)
                 (A) (A) (A) (A) (A) (A) (A) (A) (A) (A) (A) (A)
                 (A) (A) (A) (A) (A) (A) (A) (A) (A) (A) (A) (A)
                 (A) (A) (A) (A) (A) (A) (A) (A) (A) (A) (A) (A)
                 (A) (A) (A) (A) (A) (A) (A) (A) (A) (A) (A) (A)
                 (A) (A) (A) (A) (A) (A) (A) (A) (A) (A) (A) (A)
                 (A) (A) (A) (A) (A) (A) (A) (A) (A) (A) (A) (A)
                 (A) (A) (A) (A) (A) (A) (A) (A) (A) (A) (A) (A)
                 (A) (A) (A) (A) (A) (A) (A) (A) (A) (A) (A) (A)
                 (A) (A) (A) (A) (A) (A) (A) (A) (A) (A) (A) (A)
                 (A) (A) (A) (A) (A) (A) (A) (A) (A) (A) (A) (A)
                 (A) (A) (A) (A) (A) (A) (A) (A) (A) (A) (A) (A)
                 (A) (A) (A) (A) (A) (A) (A) (A) (A) (A) (A) (A)
                 (A) (A) (A) (A) (A) (A) (A) (A) (A) (A) (A) (A)
                 (A) (A) (A) (A) (A) (A) (A) (A) (A) (A) (A) (A)
                 (A) (A) (A) (A) (A) (A) (A) (A) (A) (A) (A) (A)
                 (A) (A) (A) (A) (A) (A) (A) (A) (A) (A) (A) (A)
                 (A) (A) (A) (A) (A) (A) (A) (A) (A) (A) (A) (A)
                 (A) (A) (A) (A) (A) (A) (A) (A) (A) (A) (A) (A)
                 (A) (A) (A) (A) (A) (A) (A) (A) (A) (A) (A) (A)
                 (A) (A) (A) (A) (A) (A) (A) (A) (A) (A) (A) (A)
                 (A) (A) (A) (A) (A) (A) (A) (A) (A) (A) (A) (A)
                 (A) (A) (A) (A) (A) (A) (A) (A) (A) (A) (A) (A)
                 (A) (A) (A) (A) (A) (A) (A) (A) (A) (A) (A) (A)
                 (A) (A) (A) (A) (A) (A) (A) (A) (A) (A) (A) (A)
                 (A) (A) (A) (A) (A) (A) (A) (A) (A) (A) (A) (A)
                 (A) (A) (A) (A) (A) (A) (A) (A) (A) (A) (A) (A)
                 (A) (A) (A) (A) (A) (A) (A) (A) (A) (A) (A) (A)
                 (A) (A) (A) (A) (A) (A) (A) (A) (A) (A) (A) (A)
                 (A) (A) (A) (A) (A) (A) (A) (A) (A) (A) (A) (A)
                 (A) (A) (A) (A) (A) (A) (A) (A) (A) (A) (A) (A)
                 (A) (A) (A) (A) (A) (A) (A) (A) (A) (A) (A) (A)
                 (A) (A) (A) (A) (A) (A) (A) (A) (A) (A) (A) (A)
                 (A) (A) (A) (A) (A) (A) (A) (A) (A) (A) (A) (A)
                 (A) (A) (A) (A) (A) (A) (A) (A) (A) (A) (A) (A)
                 (A) (A) (A) (A) (A) (A) (A) (A) (A) (A) (A) (A)
                 (A) (A) (A) (A) (A) (A) (A) (A) (A) (A) (A) (A)
                 (A) (A) (A) (A) (A) (A) (A) (A) (A) (A) (A) (A)
                 (A) (A) (A) (A) (A) (A) (A) (A) (A) (A) (A) (A)
                 (A) (A) (A) (A) (A) (A) (A) (A) (A) (A) (A) (A)
                 (A) (A) (A) (A) (A) (A) (A) (A) (A) (A) (A) (A)
                 (A) (A) (A) (A) (A) (A) (A) (A) (A) (A) (A) (A)
                 (A) (A) (A) (A) (A) (A) (A) (A) (A) (A) (A) (A)
                 (A) (A) (A) (A) (A) (A) (A) (A) (A) (A) (A) (A)
                 (A) (A) (A) (A) (A) (A) (A) (A) (A) (A) (A) (A)
                 (A) (A) (A) (A) (A) (A) (A) (A) (A) (A) (A) (A)
                 (A) (A) (A) (A) (A) (A) (A) (A) (A) (A) (A) (A)
                 (A) (A) (A) (A) (A) (A) (A) (A) (A) (A) (A)
 The electronic state is 1-A.
 Alpha  occ. eigenvalues --  -19.24811 -19.24357 -10.29193 -10.28655 -10.28627
 Alpha  occ. eigenvalues --  -10.28560 -10.23340 -10.23188 -10.23099 -10.22664
 Alpha  occ. eigenvalues --  -10.22639 -10.22589 -10.22352 -10.22209 -10.22063
 Alpha  occ. eigenvalues --  -10.21806  -1.11495  -1.10467  -0.88825  -0.88209
 Alpha  occ. eigenvalues --   -0.81278  -0.77956  -0.77643  -0.77176  -0.74578
 Alpha  occ. eigenvalues --   -0.68752  -0.63850  -0.63223  -0.61960  -0.60433
 Alpha  occ. eigenvalues --   -0.56476  -0.56156  -0.52300  -0.51128  -0.50473
 Alpha  occ. eigenvalues --   -0.49745  -0.48801  -0.46544  -0.45689  -0.44413
 Alpha  occ. eigenvalues --   -0.43818  -0.43323  -0.43113  -0.42638  -0.39574
 Alpha  occ. eigenvalues --   -0.38801  -0.37877  -0.37487  -0.36825  -0.35725
 Alpha  occ. eigenvalues --   -0.34855  -0.33841  -0.33178  -0.27460  -0.26817
 Alpha  occ. eigenvalues --   -0.24590  -0.23423
 Alpha virt. eigenvalues --   -0.01378  -0.00763   0.00194   0.00805   0.04437
 Alpha virt. eigenvalues --    0.06078   0.06588   0.07330   0.08077   0.08901
 Alpha virt. eigenvalues --    0.09421   0.10032   0.10504   0.11179   0.11511
 Alpha virt. eigenvalues --    0.12419   0.13103   0.13898   0.15003   0.15788
 Alpha virt. eigenvalues --    0.16061   0.16352   0.17504   0.18606   0.19020
 Alpha virt. eigenvalues --    0.20369   0.21397   0.21527   0.21938   0.22069
 Alpha virt. eigenvalues --    0.22124   0.22817   0.23466   0.24139   0.24309
 Alpha virt. eigenvalues --    0.24701   0.25730   0.25847   0.26327   0.26994
 Alpha virt. eigenvalues --    0.27884   0.28452   0.29426   0.29633   0.30011
 Alpha virt. eigenvalues --    0.30711   0.31392   0.32519   0.33477   0.33872
 Alpha virt. eigenvalues --    0.34864   0.35160   0.35447   0.35695   0.36369
 Alpha virt. eigenvalues --    0.37044   0.37444   0.38310   0.38529   0.39253
 Alpha virt. eigenvalues --    0.39435   0.39799   0.41008   0.41652   0.42555
 Alpha virt. eigenvalues --    0.42643   0.43040   0.43586   0.44067   0.44409
 Alpha virt. eigenvalues --    0.44919   0.45128   0.45400   0.45998   0.46401
 Alpha virt. eigenvalues --    0.47188   0.47387   0.48646   0.48930   0.49380
 Alpha virt. eigenvalues --    0.49960   0.50073   0.50333   0.51370   0.51761
 Alpha virt. eigenvalues --    0.52070   0.52354   0.53787   0.54667   0.56322
 Alpha virt. eigenvalues --    0.56951   0.58110   0.59812   0.60793   0.61603
 Alpha virt. eigenvalues --    0.62624   0.63606   0.64262   0.65073   0.66311
 Alpha virt. eigenvalues --    0.67369   0.67805   0.68203   0.68526   0.68894
 Alpha virt. eigenvalues --    0.69303   0.70635   0.70699   0.71370   0.71881
 Alpha virt. eigenvalues --    0.73005   0.73267   0.73946   0.75152   0.76523
 Alpha virt. eigenvalues --    0.77079   0.77924   0.78048   0.79440   0.80539
 Alpha virt. eigenvalues --    0.81430   0.81999   0.82665   0.82757   0.83868
 Alpha virt. eigenvalues --    0.84508   0.85529   0.86423   0.87699   0.88896
 Alpha virt. eigenvalues --    0.88983   0.89426   0.90106   0.91480   0.92443
 Alpha virt. eigenvalues --    0.93479   0.94662   0.95209   0.96880   0.97326
 Alpha virt. eigenvalues --    0.97872   0.98814   0.99071   0.99320   0.99843
 Alpha virt. eigenvalues --    1.00303   1.01807   1.02118   1.02733   1.04250
 Alpha virt. eigenvalues --    1.04403   1.05342   1.05949   1.07504   1.08892
 Alpha virt. eigenvalues --    1.09184   1.10180   1.10832   1.11935   1.12191
 Alpha virt. eigenvalues --    1.12265   1.13847   1.15271   1.15594   1.16996
 Alpha virt. eigenvalues --    1.18002   1.18996   1.19929   1.20979   1.21190
 Alpha virt. eigenvalues --    1.22085   1.22728   1.23322   1.24044   1.24781
 Alpha virt. eigenvalues --    1.26488   1.27309   1.28250   1.28539   1.29419
 Alpha virt. eigenvalues --    1.30338   1.30790   1.31214   1.31804   1.32428
 Alpha virt. eigenvalues --    1.33103   1.33541   1.34440   1.35443   1.35863
 Alpha virt. eigenvalues --    1.36271   1.36873   1.37872   1.38022   1.39472
 Alpha virt. eigenvalues --    1.40413   1.41980   1.42897   1.43461   1.44589
 Alpha virt. eigenvalues --    1.45113   1.45761   1.46391   1.47838   1.48034
 Alpha virt. eigenvalues --    1.48571   1.49753   1.49962   1.51036   1.52069
 Alpha virt. eigenvalues --    1.52692   1.52987   1.54807   1.55089   1.56076
 Alpha virt. eigenvalues --    1.57637   1.58768   1.59283   1.60570   1.60857
 Alpha virt. eigenvalues --    1.61660   1.62269   1.63204   1.65060   1.65620
 Alpha virt. eigenvalues --    1.67439   1.67798   1.68748   1.70052   1.71202
 Alpha virt. eigenvalues --    1.71743   1.72912   1.74281   1.74451   1.75680
 Alpha virt. eigenvalues --    1.77626   1.78615   1.80601   1.81680   1.83049
 Alpha virt. eigenvalues --    1.85432   1.86090   1.87445   1.89201   1.90843
 Alpha virt. eigenvalues --    1.93172   1.93784   1.94152   1.95484   1.97149
 Alpha virt. eigenvalues --    1.98336   1.98590   1.99727   2.00018   2.01630
 Alpha virt. eigenvalues --    2.02263   2.04468   2.04741   2.05380   2.06277
 Alpha virt. eigenvalues --    2.08868   2.09876   2.13356   2.14895   2.16631
 Alpha virt. eigenvalues --    2.18269   2.20724   2.22868   2.26088   2.27107
 Alpha virt. eigenvalues --    2.27693   2.27917   2.28683   2.29621   2.33993
 Alpha virt. eigenvalues --    2.35183   2.36153   2.36461   2.37205   2.37785
 Alpha virt. eigenvalues --    2.38793   2.39153   2.40073   2.42000   2.44117
 Alpha virt. eigenvalues --    2.46057   2.46819   2.49848   2.51298   2.54138
 Alpha virt. eigenvalues --    2.55183   2.56392   2.58613   2.60817   2.61743
 Alpha virt. eigenvalues --    2.63693   2.64329   2.64640   2.65414   2.67064
 Alpha virt. eigenvalues --    2.68114   2.69085   2.70426   2.71531   2.72078
 Alpha virt. eigenvalues --    2.72528   2.73827   2.74114   2.74984   2.77325
 Alpha virt. eigenvalues --    2.77698   2.78309   2.78487   2.79875   2.80209
 Alpha virt. eigenvalues --    2.80411   2.82508   2.83223   2.83902   2.84572
 Alpha virt. eigenvalues --    2.84793   2.85168   2.85459   2.87669   2.88796
 Alpha virt. eigenvalues --    2.90564   2.91551   2.92166   2.92570   2.92999
 Alpha virt. eigenvalues --    2.93642   2.94202   2.95800   2.97229   2.98567
 Alpha virt. eigenvalues --    2.99877   3.00885   3.01517   3.03185   3.03806
 Alpha virt. eigenvalues --    3.04209   3.04431   3.04849   3.05233   3.05833
 Alpha virt. eigenvalues --    3.06125   3.06986   3.07245   3.07320   3.08456
 Alpha virt. eigenvalues --    3.08745   3.09748   3.11532   3.11938   3.12253
 Alpha virt. eigenvalues --    3.13317   3.14071   3.14752   3.15699   3.16583
 Alpha virt. eigenvalues --    3.16732   3.17418   3.18249   3.18704   3.19479
 Alpha virt. eigenvalues --    3.20233   3.20831   3.22088   3.22415   3.23401
 Alpha virt. eigenvalues --    3.23925   3.24890   3.25812   3.25951   3.26967
 Alpha virt. eigenvalues --    3.27910   3.29478   3.31336   3.31875   3.32846
 Alpha virt. eigenvalues --    3.33130   3.33338   3.33715   3.34219   3.34573
 Alpha virt. eigenvalues --    3.35809   3.36550   3.36823   3.37340   3.37778
 Alpha virt. eigenvalues --    3.39049   3.39158   3.40326   3.40690   3.41985
 Alpha virt. eigenvalues --    3.42795   3.43336   3.43989   3.44736   3.46607
 Alpha virt. eigenvalues --    3.46932   3.47378   3.48132   3.49681   3.50244
 Alpha virt. eigenvalues --    3.51081   3.51988   3.53939   3.54008   3.54987
 Alpha virt. eigenvalues --    3.55344   3.56686   3.57329   3.57618   3.59639
 Alpha virt. eigenvalues --    3.61896   3.62395   3.62548   3.64124   3.65299
 Alpha virt. eigenvalues --    3.66591   3.67852   3.68970   3.69142   3.69930
 Alpha virt. eigenvalues --    3.70535   3.73514   3.74961   3.77120   3.77912
 Alpha virt. eigenvalues --    3.78030   3.78752   3.78809   3.79102   3.79614
 Alpha virt. eigenvalues --    3.79943   3.80502   3.81198   3.81373   3.82211
 Alpha virt. eigenvalues --    3.83307   3.83909   3.84216   3.84875   3.85250
 Alpha virt. eigenvalues --    3.85853   3.86040   3.87349   3.88489   3.89218
 Alpha virt. eigenvalues --    3.90441   3.91276   3.93473   3.93873   3.95083
 Alpha virt. eigenvalues --    3.96026   3.97659   3.97791   3.98431   3.99575
 Alpha virt. eigenvalues --    4.00763   4.02695   4.03945   4.05307   4.07547
 Alpha virt. eigenvalues --    4.07749   4.09623   4.10708   4.11169   4.12752
 Alpha virt. eigenvalues --    4.13947   4.15366   4.15992   4.16805   4.17897
 Alpha virt. eigenvalues --    4.18762   4.19511   4.20679   4.21110   4.22230
 Alpha virt. eigenvalues --    4.22571   4.22796   4.24365   4.25137   4.26161
 Alpha virt. eigenvalues --    4.26279   4.27672   4.27968   4.28457   4.28653
 Alpha virt. eigenvalues --    4.28982   4.30015   4.30341   4.32048   4.32924
 Alpha virt. eigenvalues --    4.33581   4.34358   4.36100   4.36482   4.37459
 Alpha virt. eigenvalues --    4.40881   4.41177   4.42499   4.43259   4.44873
 Alpha virt. eigenvalues --    4.46495   4.50171   4.52073   4.52643   4.53683
 Alpha virt. eigenvalues --    4.56794   4.57080   4.59465   4.60034   4.64642
 Alpha virt. eigenvalues --    4.65312   4.66284   4.66827   4.67397   4.68038
 Alpha virt. eigenvalues --    4.68263   4.70089   4.70416   4.71665   4.72355
 Alpha virt. eigenvalues --    4.73127   4.73999   4.74693   4.75834   4.76866
 Alpha virt. eigenvalues --    4.78960   4.79765   4.80855   4.81891   4.82259
 Alpha virt. eigenvalues --    4.82928   4.83448   4.85046   4.87245   4.88259
 Alpha virt. eigenvalues --    4.88387   4.90997   4.92573   4.97922   5.00115
 Alpha virt. eigenvalues --    5.00212   5.00885   5.01565   5.02435   5.04372
 Alpha virt. eigenvalues --    5.06342   5.08368   5.10108   5.11984   5.12995
 Alpha virt. eigenvalues --    5.19318   5.20977   5.22128   5.22537   5.23865
 Alpha virt. eigenvalues --    5.25554   5.27737   5.30001   5.31455   5.33964
 Alpha virt. eigenvalues --    5.34520   5.35588   5.36443   5.37043   5.38162
 Alpha virt. eigenvalues --    5.40448   5.42112   5.43347   5.44696   5.47861
 Alpha virt. eigenvalues --    5.50112   5.52471   5.54109   5.55450   5.58701
 Alpha virt. eigenvalues --    5.60614   5.63055   5.64273   5.66821   5.67220
 Alpha virt. eigenvalues --    5.70014   5.71576   5.75119   5.77504   5.81786
 Alpha virt. eigenvalues --    5.83603   5.90832   5.93089   5.93965   5.95592
 Alpha virt. eigenvalues --    5.99699   6.01016   6.08112   6.10911   6.14945
 Alpha virt. eigenvalues --    6.15522   6.29515   6.30298   6.49754   6.50260
 Alpha virt. eigenvalues --    6.57751   6.59799   6.76299   6.79012   6.85077
 Alpha virt. eigenvalues --    6.86454   6.95462   6.96321   7.02485   7.03781
 Alpha virt. eigenvalues --    7.38277   7.39734   7.54605   7.58673  22.69641
 Alpha virt. eigenvalues --   22.75144  23.20478  23.20743  23.26391  23.28612
 Alpha virt. eigenvalues --   23.31261  23.31719  23.37926  23.38685  23.45295
 Alpha virt. eigenvalues --   23.52438  24.15866  24.16682  44.59212  44.64824
          Condensed to atoms (all electrons):
               1          2          3          4          5          6
     1  C    4.843534   0.380543   0.463798   0.258094  -0.043235  -0.045034
     2  H    0.380543   0.586948  -0.018414  -0.025570   0.005768  -0.009839
     3  H    0.463798  -0.018414   0.570615  -0.102873   0.003017   0.008181
     4  C    0.258094  -0.025570  -0.102873   4.971444   0.410635   0.394949
     5  H   -0.043235   0.005768   0.003017   0.410635   0.534253  -0.010496
     6  H   -0.045034  -0.009839   0.008181   0.394949  -0.010496   0.594538
     7  O    0.275030  -0.026719  -0.039700  -0.056111  -0.000621   0.006008
     8  O   -0.048763   0.007165   0.004195   0.229327  -0.026704  -0.030380
     9  C   -0.080357   0.006891  -0.023511   0.030259   0.002968  -0.002414
    10  C    0.000798  -0.001077   0.003682   0.001057   0.001034  -0.000083
    11  C    0.006330   0.000013   0.013080  -0.003816  -0.002746   0.000376
    12  C   -0.001668   0.000100  -0.000788   0.000495   0.000007  -0.000028
    13  C   -0.007371   0.000364  -0.002875   0.002979   0.000522  -0.000038
    14  C    0.001217  -0.000049   0.000550  -0.000633   0.000056   0.000019
    15  H    0.000731  -0.000215   0.000274  -0.000185   0.000037   0.000007
    16  H   -0.003344   0.000375   0.007404  -0.014360   0.001001   0.002338
    17  H    0.000010   0.000000  -0.000003   0.000001  -0.000002   0.000000
    18  H    0.000018  -0.000001  -0.000042   0.000084  -0.000030  -0.000003
    19  H    0.000001   0.000000   0.000003   0.000001   0.000001   0.000000
    20  C    0.016127   0.001498   0.005700  -0.071153   0.004778  -0.014435
    21  C    0.008454  -0.006872   0.001372  -0.004896  -0.001726   0.009267
    22  C    0.004728  -0.000805   0.003644  -0.010169  -0.000702   0.004177
    23  C    0.000067   0.001035   0.000333  -0.005290   0.000399  -0.001234
    24  C   -0.000521   0.000099  -0.000182  -0.000540   0.000144  -0.000311
    25  C    0.000102  -0.000119   0.000172   0.000564  -0.000064   0.000210
    26  H    0.000811   0.000107  -0.001596   0.006765  -0.000747   0.000325
    27  H    0.000165  -0.000037   0.000164  -0.000458  -0.000235   0.000222
    28  H    0.000034  -0.000016   0.000030  -0.000156   0.000002   0.000010
    29  H    0.000002   0.000000  -0.000002   0.000018   0.000000  -0.000003
    30  H    0.000003  -0.000001   0.000002  -0.000002   0.000000   0.000002
               7          8          9         10         11         12
     1  C    0.275030  -0.048763  -0.080357   0.000798   0.006330  -0.001668
     2  H   -0.026719   0.007165   0.006891  -0.001077   0.000013   0.000100
     3  H   -0.039700   0.004195  -0.023511   0.003682   0.013080  -0.000788
     4  C   -0.056111   0.229327   0.030259   0.001057  -0.003816   0.000495
     5  H   -0.000621  -0.026704   0.002968   0.001034  -0.002746   0.000007
     6  H    0.006008  -0.030380  -0.002414  -0.000083   0.000376  -0.000028
     7  O    7.845982   0.005234   0.350488  -0.046519  -0.081713   0.000836
     8  O    0.005234   7.884337  -0.007760  -0.000123  -0.016138  -0.000051
     9  C    0.350488  -0.007760   4.926923   0.429036   0.240854   0.009333
    10  C   -0.046519  -0.000123   0.429036   4.935566   0.073066   0.526799
    11  C   -0.081713  -0.016138   0.240854   0.073066   5.221305  -0.104045
    12  C    0.000836  -0.000051   0.009333   0.526799  -0.104045   4.791494
    13  C    0.009152  -0.001010   0.084391  -0.093758   0.344064   0.005996
    14  C   -0.000263   0.000118  -0.096868  -0.013810   0.011301   0.507535
    15  H    0.011086  -0.000003  -0.061983   0.424614   0.018021  -0.036526
    16  H   -0.006084   0.030040  -0.063519   0.003022   0.426993  -0.000429
    17  H   -0.000191   0.000000   0.012113  -0.036710  -0.003795   0.417026
    18  H   -0.000185  -0.000123   0.000455   0.002984  -0.018080   0.002888
    19  H    0.000019   0.000000  -0.000816   0.006320   0.009686  -0.031595
    20  C   -0.000199   0.335866   0.000340   0.000092   0.000785  -0.000013
    21  C   -0.000139  -0.079582   0.000114   0.000035   0.000263  -0.000003
    22  C   -0.000019  -0.047882   0.000021   0.000013  -0.000325  -0.000002
    23  C   -0.000007   0.009044  -0.000028   0.000000   0.000052   0.000000
    24  C    0.000000   0.002845  -0.000005   0.000000  -0.000068   0.000000
    25  C    0.000000  -0.000514   0.000000   0.000000  -0.000016   0.000000
    26  H    0.000111  -0.007313   0.000035  -0.000010  -0.000061   0.000000
    27  H   -0.000002   0.009812   0.000012   0.000003  -0.000068  -0.000001
    28  H    0.000000  -0.000161   0.000000   0.000000  -0.000001   0.000000
    29  H    0.000000  -0.000201   0.000000   0.000000   0.000001   0.000000
    30  H    0.000000   0.000017   0.000000   0.000000   0.000000   0.000000
              13         14         15         16         17         18
     1  C   -0.007371   0.001217   0.000731  -0.003344   0.000010   0.000018
     2  H    0.000364  -0.000049  -0.000215   0.000375   0.000000  -0.000001
     3  H   -0.002875   0.000550   0.000274   0.007404  -0.000003  -0.000042
     4  C    0.002979  -0.000633  -0.000185  -0.014360   0.000001   0.000084
     5  H    0.000522   0.000056   0.000037   0.001001  -0.000002  -0.000030
     6  H   -0.000038   0.000019   0.000007   0.002338   0.000000  -0.000003
     7  O    0.009152  -0.000263   0.011086  -0.006084  -0.000191  -0.000185
     8  O   -0.001010   0.000118  -0.000003   0.030040   0.000000  -0.000123
     9  C    0.084391  -0.096868  -0.061983  -0.063519   0.012113   0.000455
    10  C   -0.093758  -0.013810   0.424614   0.003022  -0.036710   0.002984
    11  C    0.344064   0.011301   0.018021   0.426993  -0.003795  -0.018080
    12  C    0.005996   0.507535  -0.036526  -0.000429   0.417026   0.002888
    13  C    4.967501   0.502101  -0.005127  -0.018922   0.009849   0.397520
    14  C    0.502101   4.848677   0.011789   0.007386  -0.037532  -0.021898
    15  H   -0.005127   0.011789   0.542106  -0.000171  -0.007640   0.000108
    16  H   -0.018922   0.007386  -0.000171   0.536488   0.000043  -0.003715
    17  H    0.009849  -0.037532  -0.007640   0.000043   0.539576  -0.000510
    18  H    0.397520  -0.021898   0.000108  -0.003715  -0.000510   0.529495
    19  H   -0.032221   0.411294  -0.000311  -0.000345  -0.004236  -0.003907
    20  C   -0.000215   0.000014   0.000004  -0.004313   0.000000  -0.000001
    21  C   -0.000126   0.000004   0.000002  -0.000125   0.000000   0.000001
    22  C   -0.000096   0.000004   0.000000  -0.000788   0.000000   0.000013
    23  C    0.000004   0.000000   0.000000   0.000009   0.000000   0.000000
    24  C    0.000005   0.000000   0.000000   0.000110   0.000000   0.000000
    25  C   -0.000001   0.000000   0.000000   0.000041   0.000000   0.000000
    26  H    0.000002   0.000000  -0.000001  -0.000018   0.000000   0.000000
    27  H   -0.000052   0.000002   0.000000   0.000235   0.000000   0.000006
    28  H    0.000000   0.000000   0.000000   0.000001   0.000000   0.000000
    29  H    0.000000   0.000000   0.000000  -0.000004   0.000000   0.000000
    30  H    0.000000   0.000000   0.000000   0.000000   0.000000   0.000000
              19         20         21         22         23         24
     1  C    0.000001   0.016127   0.008454   0.004728   0.000067  -0.000521
     2  H    0.000000   0.001498  -0.006872  -0.000805   0.001035   0.000099
     3  H    0.000003   0.005700   0.001372   0.003644   0.000333  -0.000182
     4  C    0.000001  -0.071153  -0.004896  -0.010169  -0.005290  -0.000540
     5  H    0.000001   0.004778  -0.001726  -0.000702   0.000399   0.000144
     6  H    0.000000  -0.014435   0.009267   0.004177  -0.001234  -0.000311
     7  O    0.000019  -0.000199  -0.000139  -0.000019  -0.000007   0.000000
     8  O    0.000000   0.335866  -0.079582  -0.047882   0.009044   0.002845
     9  C   -0.000816   0.000340   0.000114   0.000021  -0.000028  -0.000005
    10  C    0.006320   0.000092   0.000035   0.000013   0.000000   0.000000
    11  C    0.009686   0.000785   0.000263  -0.000325   0.000052  -0.000068
    12  C   -0.031595  -0.000013  -0.000003  -0.000002   0.000000   0.000000
    13  C   -0.032221  -0.000215  -0.000126  -0.000096   0.000004   0.000005
    14  C    0.411294   0.000014   0.000004   0.000004   0.000000   0.000000
    15  H   -0.000311   0.000004   0.000002   0.000000   0.000000   0.000000
    16  H   -0.000345  -0.004313  -0.000125  -0.000788   0.000009   0.000110
    17  H   -0.004236   0.000000   0.000000   0.000000   0.000000   0.000000
    18  H   -0.003907  -0.000001   0.000001   0.000013   0.000000   0.000000
    19  H    0.533087   0.000000   0.000000   0.000000   0.000000   0.000000
    20  C    0.000000   4.879603   0.298328   0.414528   0.060385   0.003064
    21  C    0.000000   0.298328   5.154162   0.073361   0.376849  -0.093238
    22  C    0.000000   0.414528   0.073361   4.943305  -0.088076   0.520816
    23  C    0.000000   0.060385   0.376849  -0.088076   4.929977  -0.003252
    24  C    0.000000   0.003064  -0.093238   0.520816  -0.003252   4.790452
    25  C    0.000000  -0.086584   0.000301  -0.019644   0.517602   0.516905
    26  H    0.000000  -0.050161   0.422499   0.002379  -0.016557   0.000936
    27  H    0.000000  -0.061867   0.016402   0.426452  -0.004554  -0.034301
    28  H    0.000000   0.000542  -0.019127   0.003140   0.395955   0.002451
    29  H    0.000000   0.010823  -0.002567  -0.032883   0.008750   0.413218
    30  H    0.000000  -0.000446   0.008822   0.005885  -0.030654  -0.029921
              25         26         27         28         29         30
     1  C    0.000102   0.000811   0.000165   0.000034   0.000002   0.000003
     2  H   -0.000119   0.000107  -0.000037  -0.000016   0.000000  -0.000001
     3  H    0.000172  -0.001596   0.000164   0.000030  -0.000002   0.000002
     4  C    0.000564   0.006765  -0.000458  -0.000156   0.000018  -0.000002
     5  H   -0.000064  -0.000747  -0.000235   0.000002   0.000000   0.000000
     6  H    0.000210   0.000325   0.000222   0.000010  -0.000003   0.000002
     7  O    0.000000   0.000111  -0.000002   0.000000   0.000000   0.000000
     8  O   -0.000514  -0.007313   0.009812  -0.000161  -0.000201   0.000017
     9  C    0.000000   0.000035   0.000012   0.000000   0.000000   0.000000
    10  C    0.000000  -0.000010   0.000003   0.000000   0.000000   0.000000
    11  C   -0.000016  -0.000061  -0.000068  -0.000001   0.000001   0.000000
    12  C    0.000000   0.000000  -0.000001   0.000000   0.000000   0.000000
    13  C   -0.000001   0.000002  -0.000052   0.000000   0.000000   0.000000
    14  C    0.000000   0.000000   0.000002   0.000000   0.000000   0.000000
    15  H    0.000000  -0.000001   0.000000   0.000000   0.000000   0.000000
    16  H    0.000041  -0.000018   0.000235   0.000001  -0.000004   0.000000
    17  H    0.000000   0.000000   0.000000   0.000000   0.000000   0.000000
    18  H    0.000000   0.000000   0.000006   0.000000   0.000000   0.000000
    19  H    0.000000   0.000000   0.000000   0.000000   0.000000   0.000000
    20  C   -0.086584  -0.050161  -0.061867   0.000542   0.010823  -0.000446
    21  C    0.000301   0.422499   0.016402  -0.019127  -0.002567   0.008822
    22  C   -0.019644   0.002379   0.426452   0.003140  -0.032883   0.005885
    23  C    0.517602  -0.016557  -0.004554   0.395955   0.008750  -0.030654
    24  C    0.516905   0.000936  -0.034301   0.002451   0.413218  -0.029921
    25  C    4.832573   0.004949   0.011260  -0.019540  -0.035814   0.409817
    26  H    0.004949   0.552085  -0.000265  -0.003478   0.000074  -0.000425
    27  H    0.011260  -0.000265   0.537445   0.000106  -0.007105  -0.000307
    28  H   -0.019540  -0.003478   0.000106   0.528708  -0.000516  -0.003658
    29  H   -0.035814   0.000074  -0.007105  -0.000516   0.536029  -0.004018
    30  H    0.409817  -0.000425  -0.000307  -0.003658  -0.004018   0.529642
 Mulliken charges:
               1
     1  C   -0.030303
     2  H    0.098828
     3  H    0.103770
     4  C   -0.010460
     5  H    0.122690
     6  H    0.093671
     7  O   -0.245472
     8  O   -0.251292
     9  C    0.243028
    10  C   -0.216031
    11  C   -0.135318
    12  C   -0.087362
    13  C   -0.162638
    14  C   -0.131014
    15  H    0.103381
    16  H    0.100651
    17  H    0.112001
    18  H    0.114924
    19  H    0.113019
    20  C    0.256911
    21  C   -0.161834
    22  C   -0.201074
    23  C   -0.150805
    24  C   -0.088705
    25  C   -0.132200
    26  H    0.089555
    27  H    0.106968
    28  H    0.115673
    29  H    0.114197
    30  H    0.115245
 Sum of Mulliken charges =   0.00000
 Mulliken charges with hydrogens summed into heavy atoms:
               1
     1  C    0.172294
     4  C    0.205901
     7  O   -0.245472
     8  O   -0.251292
     9  C    0.243028
    10  C   -0.112650
    11  C   -0.034667
    12  C    0.024639
    13  C   -0.047714
    14  C   -0.017995
    20  C    0.256911
    21  C   -0.072279
    22  C   -0.094107
    23  C   -0.035132
    24  C    0.025492
    25  C   -0.016955
 Electronic spatial extent (au):  <R**2>=           4988.8455
 Charge=              0.0000 electrons
 Dipole moment (field-independent basis, Debye):
    X=              0.9077    Y=             -0.5181    Z=             -0.0317  Tot=              1.0457
 Quadrupole moment (field-independent basis, Debye-Ang):
   XX=            -88.9401   YY=            -86.7378   ZZ=            -98.5195
   XY=             -1.6996   XZ=             -3.1167   YZ=             -0.2684
 Traceless Quadrupole moment (field-independent basis, Debye-Ang):
   XX=              2.4590   YY=              4.6613   ZZ=             -7.1203
   XY=             -1.6996   XZ=             -3.1167   YZ=             -0.2684
 Octapole moment (field-independent basis, Debye-Ang**2):
  XXX=            -13.3626  YYY=              2.5578  ZZZ=              9.4367  XYY=              9.2198
  XXY=              5.5303  XXZ=            -17.0936  XZZ=              3.5808  YZZ=             -8.5679
  YYZ=              1.7757  XYZ=              3.5522
 Hexadecapole moment (field-independent basis, Debye-Ang**3):
 XXXX=          -5374.3444 YYYY=           -821.9774 ZZZZ=           -271.0722 XXXY=             46.1801
 XXXZ=           -105.2224 YYYX=             -2.4965 YYYZ=              8.3741 ZZZX=              0.4143
 ZZZY=              0.5570 XXYY=          -1022.0138 XXZZ=          -1095.7571 YYZZ=           -198.9112
 XXYZ=             10.0291 YYXZ=             -0.6782 ZZXY=              5.2088
 N-N= 1.009404080164D+03 E-N=-3.629944958597D+03  KE= 6.885804395913D+02
 No NMR shielding tensors so no spin-rotation constants.
 Leave Link  601 at Fri May 17 10:26:52 2024, MaxMem=  6291456000 cpu:        17.6
 (Enter /home/madghost/g09/l607.exe)
 ******************************Gaussian NBO Version 3.1******************************
             N A T U R A L   A T O M I C   O R B I T A L   A N D
          N A T U R A L   B O N D   O R B I T A L   A N A L Y S I S
 ******************************Gaussian NBO Version 3.1******************************

       /RESON  / : Allow strongly delocalized NBO set
       /E2PERT / : Analyze NBO Fock matrix
                   Print threshold set to  0.05
       /PLOT   / : Write information for the orbital plotter
       /ARCHIVE/ : Write the archive file to LFN 47
       /BNDIDX / : Print bond indices based on the NAO density matrix
       /FILE   / : Set to JOB12                                               

 Analyzing the SCF density

 Job title: c2h                                                             

 Storage needed:   1440014 in NPA,   1918463 in NBO,   1440952 in NLMO (6291451200 available)


 NATURAL POPULATIONS:  Natural atomic orbital occupancies 
                                                          
   NAO  Atom  No  lang   Type(AO)    Occupancy      Energy
 ----------------------------------------------------------
     1    C    1  S      Cor( 1S)     1.99924     -10.16042
     2    C    1  S      Val( 2S)     1.04589      -0.31055
     3    C    1  S      Ryd( 3S)     0.00228       1.38266
     4    C    1  S      Ryd( 4S)     0.00035       2.13449
     5    C    1  S      Ryd( 5S)     0.00000      21.68748
     6    C    1  px     Val( 2p)     0.76805      -0.09547
     7    C    1  px     Ryd( 3p)     0.00335       1.15265
     8    C    1  px     Ryd( 4p)     0.00022       1.60415
     9    C    1  py     Val( 2p)     1.19821      -0.13134
    10    C    1  py     Ryd( 3p)     0.00304       1.19653
    11    C    1  py     Ryd( 4p)     0.00052       1.91612
    12    C    1  pz     Val( 2p)     1.09328      -0.12367
    13    C    1  pz     Ryd( 3p)     0.00072       0.92131
    14    C    1  pz     Ryd( 4p)     0.00019       1.47651
    15    C    1  dxy    Ryd( 3d)     0.00158       1.64881
    16    C    1  dxy    Ryd( 4d)     0.00026       3.28104
    17    C    1  dxz    Ryd( 3d)     0.00169       1.61247
    18    C    1  dxz    Ryd( 4d)     0.00015       3.12402
    19    C    1  dyz    Ryd( 3d)     0.00106       1.68891
    20    C    1  dyz    Ryd( 4d)     0.00025       3.32797
    21    C    1  dx2y2  Ryd( 3d)     0.00082       1.90322
    22    C    1  dx2y2  Ryd( 4d)     0.00037       3.60768
    23    C    1  dz2    Ryd( 3d)     0.00101       1.76207
    24    C    1  dz2    Ryd( 4d)     0.00021       3.45989
    25    C    1  f(0)   Ryd( 4f)     0.00003       3.82528
    26    C    1  f(C1)  Ryd( 4f)     0.00004       3.85997
    27    C    1  f(S1)  Ryd( 4f)     0.00008       3.87752
    28    C    1  f(C2)  Ryd( 4f)     0.00003       3.96489
    29    C    1  f(S2)  Ryd( 4f)     0.00004       3.77233
    30    C    1  f(C3)  Ryd( 4f)     0.00009       3.98506
    31    C    1  f(S3)  Ryd( 4f)     0.00002       3.97865

    32    H    2  S      Val( 1S)     0.79763      -0.00542
    33    H    2  S      Ryd( 2S)     0.00047       0.95128
    34    H    2  S      Ryd( 3S)     0.00013       1.66925
    35    H    2  px     Ryd( 3p)     0.00011       4.04478
    36    H    2  px     Ryd( 2p)     0.00017       2.29949
    37    H    2  py     Ryd( 3p)     0.00054       4.23651
    38    H    2  py     Ryd( 2p)     0.00006       3.00108
    39    H    2  pz     Ryd( 3p)     0.00006       3.96122
    40    H    2  pz     Ryd( 2p)     0.00026       2.02324
    41    H    2  dxy    Ryd( 3d)     0.00005       4.18896
    42    H    2  dxz    Ryd( 3d)     0.00001       3.71378
    43    H    2  dyz    Ryd( 3d)     0.00005       4.12116
    44    H    2  dx2y2  Ryd( 3d)     0.00006       4.28080
    45    H    2  dz2    Ryd( 3d)     0.00002       3.92140

    46    H    3  S      Val( 1S)     0.80396      -0.00974
    47    H    3  S      Ryd( 2S)     0.00191       0.58166
    48    H    3  S      Ryd( 3S)     0.00023       2.31876
    49    H    3  px     Ryd( 2p)     0.00017       2.95838
    50    H    3  px     Ryd( 3p)     0.00010       3.34579
    51    H    3  py     Ryd( 2p)     0.00013       3.21655
    52    H    3  py     Ryd( 3p)     0.00011       3.27916
    53    H    3  pz     Ryd( 3p)     0.00020       3.62518
    54    H    3  pz     Ryd( 2p)     0.00009       3.43438
    55    H    3  dxy    Ryd( 3d)     0.00003       3.86393
    56    H    3  dxz    Ryd( 3d)     0.00001       3.98732
    57    H    3  dyz    Ryd( 3d)     0.00002       4.36113
    58    H    3  dx2y2  Ryd( 3d)     0.00003       3.93794
    59    H    3  dz2    Ryd( 3d)     0.00005       4.13202

    60    C    4  S      Cor( 1S)     1.99924     -10.16026
    61    C    4  S      Val( 2S)     1.04734      -0.31120
    62    C    4  S      Ryd( 3S)     0.00253       1.28520
    63    C    4  S      Ryd( 4S)     0.00021       2.85639
    64    C    4  S      Ryd( 5S)     0.00000      21.45681
    65    C    4  px     Val( 2p)     1.08483      -0.12601
    66    C    4  px     Ryd( 3p)     0.00226       1.23251
    67    C    4  px     Ryd( 4p)     0.00021       1.73927
    68    C    4  py     Val( 2p)     0.88205      -0.10180
    69    C    4  py     Ryd( 3p)     0.00386       1.08128
    70    C    4  py     Ryd( 4p)     0.00042       1.57912
    71    C    4  pz     Val( 2p)     1.09579      -0.12533
    72    C    4  pz     Ryd( 3p)     0.00109       0.92283
    73    C    4  pz     Ryd( 4p)     0.00051       1.76198
    74    C    4  dxy    Ryd( 3d)     0.00121       1.91976
    75    C    4  dxy    Ryd( 4d)     0.00032       3.54593
    76    C    4  dxz    Ryd( 3d)     0.00154       1.76400
    77    C    4  dxz    Ryd( 4d)     0.00021       3.38086
    78    C    4  dyz    Ryd( 3d)     0.00144       1.68902
    79    C    4  dyz    Ryd( 4d)     0.00017       3.16015
    80    C    4  dx2y2  Ryd( 3d)     0.00120       1.70002
    81    C    4  dx2y2  Ryd( 4d)     0.00025       3.19512
    82    C    4  dz2    Ryd( 3d)     0.00089       1.74274
    83    C    4  dz2    Ryd( 4d)     0.00024       3.33434
    84    C    4  f(0)   Ryd( 4f)     0.00006       3.87806
    85    C    4  f(C1)  Ryd( 4f)     0.00005       3.78411
    86    C    4  f(S1)  Ryd( 4f)     0.00003       3.79769
    87    C    4  f(C2)  Ryd( 4f)     0.00004       3.92139
    88    C    4  f(S2)  Ryd( 4f)     0.00007       3.98252
    89    C    4  f(C3)  Ryd( 4f)     0.00007       3.83726
    90    C    4  f(S3)  Ryd( 4f)     0.00003       4.05417

    91    H    5  S      Val( 1S)     0.77865       0.00405
    92    H    5  S      Ryd( 2S)     0.00066       1.12041
    93    H    5  S      Ryd( 3S)     0.00012       1.52343
    94    H    5  px     Ryd( 3p)     0.00033       4.23830
    95    H    5  px     Ryd( 2p)     0.00006       2.62602
    96    H    5  py     Ryd( 3p)     0.00004       4.00253
    97    H    5  py     Ryd( 2p)     0.00011       2.08671
    98    H    5  pz     Ryd( 3p)     0.00032       4.16388
    99    H    5  pz     Ryd( 2p)     0.00011       2.74056
   100    H    5  dxy    Ryd( 3d)     0.00003       4.05013
   101    H    5  dxz    Ryd( 3d)     0.00008       4.37136
   102    H    5  dyz    Ryd( 3d)     0.00002       3.87352
   103    H    5  dx2y2  Ryd( 3d)     0.00003       3.96829
   104    H    5  dz2    Ryd( 3d)     0.00006       4.02185

   105    H    6  S      Val( 1S)     0.81076      -0.01439
   106    H    6  S      Ryd( 2S)     0.00107       1.00733
   107    H    6  S      Ryd( 3S)     0.00010       1.61444
   108    H    6  px     Ryd( 3p)     0.00018       4.10953
   109    H    6  px     Ryd( 2p)     0.00015       2.31159
   110    H    6  py     Ryd( 3p)     0.00031       4.14504
   111    H    6  py     Ryd( 2p)     0.00014       2.60387
   112    H    6  pz     Ryd( 3p)     0.00020       4.04974
   113    H    6  pz     Ryd( 2p)     0.00018       2.37143
   114    H    6  dxy    Ryd( 3d)     0.00006       4.21846
   115    H    6  dxz    Ryd( 3d)     0.00005       3.97434
   116    H    6  dyz    Ryd( 3d)     0.00004       4.08000
   117    H    6  dx2y2  Ryd( 3d)     0.00003       4.00963
   118    H    6  dz2    Ryd( 3d)     0.00003       3.92354

   119    O    7  S      Cor( 1S)     1.99974     -19.02175
   120    O    7  S      Val( 2S)     1.57743      -0.89098
   121    O    7  S      Ryd( 3S)     0.00085       1.46331
   122    O    7  S      Ryd( 4S)     0.00011       4.38138
   123    O    7  S      Ryd( 5S)     0.00000      43.65219
   124    O    7  px     Val( 2p)     1.35782      -0.29652
   125    O    7  px     Ryd( 3p)     0.00135       1.08881
   126    O    7  px     Ryd( 4p)     0.00024       4.23527
   127    O    7  py     Val( 2p)     1.65573      -0.33465
   128    O    7  py     Ryd( 3p)     0.00247       0.68041
   129    O    7  py     Ryd( 4p)     0.00025       3.77181
   130    O    7  pz     Val( 2p)     1.83596      -0.33077
   131    O    7  pz     Ryd( 3p)     0.00343       0.69485
   132    O    7  pz     Ryd( 4p)     0.00017       3.02790
   133    O    7  dxy    Ryd( 3d)     0.00400       2.00002
   134    O    7  dxy    Ryd( 4d)     0.00010       6.66474
   135    O    7  dxz    Ryd( 3d)     0.00033       1.84476
   136    O    7  dxz    Ryd( 4d)     0.00009       6.52599
   137    O    7  dyz    Ryd( 3d)     0.00233       1.75817
   138    O    7  dyz    Ryd( 4d)     0.00003       6.45572
   139    O    7  dx2y2  Ryd( 3d)     0.00362       2.13596
   140    O    7  dx2y2  Ryd( 4d)     0.00009       6.67090
   141    O    7  dz2    Ryd( 3d)     0.00296       1.86215
   142    O    7  dz2    Ryd( 4d)     0.00001       6.54843
   143    O    7  f(0)   Ryd( 4f)     0.00014       5.44866
   144    O    7  f(C1)  Ryd( 4f)     0.00011       5.54131
   145    O    7  f(S1)  Ryd( 4f)     0.00006       5.46459
   146    O    7  f(C2)  Ryd( 4f)     0.00002       5.49885
   147    O    7  f(S2)  Ryd( 4f)     0.00004       5.52129
   148    O    7  f(C3)  Ryd( 4f)     0.00013       5.91397
   149    O    7  f(S3)  Ryd( 4f)     0.00004       5.95804

   150    O    8  S      Cor( 1S)     1.99973     -19.02626
   151    O    8  S      Val( 2S)     1.57789      -0.89639
   152    O    8  S      Ryd( 3S)     0.00078       1.53103
   153    O    8  S      Ryd( 4S)     0.00012       4.51247
   154    O    8  S      Ryd( 5S)     0.00000      43.49833
   155    O    8  px     Val( 2p)     1.46236      -0.31437
   156    O    8  px     Ryd( 3p)     0.00180       0.95807
   157    O    8  px     Ryd( 4p)     0.00023       4.04521
   158    O    8  py     Val( 2p)     1.60946      -0.32880
   159    O    8  py     Ryd( 3p)     0.00214       0.86312
   160    O    8  py     Ryd( 4p)     0.00020       3.84440
   161    O    8  pz     Val( 2p)     1.78041      -0.33418
   162    O    8  pz     Ryd( 3p)     0.00308       0.72836
   163    O    8  pz     Ryd( 4p)     0.00018       3.20449
   164    O    8  dxy    Ryd( 3d)     0.00272       2.08283
   165    O    8  dxy    Ryd( 4d)     0.00009       6.64357
   166    O    8  dxz    Ryd( 3d)     0.00252       1.89162
   167    O    8  dxz    Ryd( 4d)     0.00005       6.56868
[...]
   20      25      30     0.0668512       0.0723270
   20      25      31    -0.0032937      -0.0296818
   20      25      33    -0.0664974      -0.0442566
   20      25      34    -0.0035485      -0.0134115
   20      25      36    -0.0033302      -0.0135680
   20      25      57     0.0125732       0.0408881
   20      26      26    -0.0027761      -0.1141137
   20      26      28     0.0068213       0.0180811
   20      27      24    -0.0024239      -0.1236256
   20      27      31     0.0071383       0.0310048
   20      28      24     0.0023983       0.0630019
   20      28      34    -0.0035485      -0.0039023
   20      29      26     0.0025019       0.0594978
   20      29      36    -0.0033302      -0.0057811
   20      30      27     0.0026660       0.0533555
   20      30      29     0.0025982       0.0613238
   21      22      24     0.0041910       0.1484535
   21      22      25     0.0692860       0.1160846
   21      22      26     0.0039193       0.2206045
   21      22      28    -0.0034890      -0.0604136
   21      22      30    -0.0394405      -0.0737606
   21      22      31    -0.0038325      -0.0553167
   21      22      33    -0.0501833      -0.0871363
   21      22      37    -0.0032111      -0.0837263
   21      22      56    -0.0025258      -0.3553222
   21      22      57     0.0184852       0.0667995
   21      23      24     0.0044796       0.2527677
   21      23      25     0.1548974       0.4180535
   21      23      27     0.9758655       0.8047838
   21      23      28     0.0056238       0.1611800
   21      23      30     0.0394405       0.3311633
   21      23      32     0.0041825       0.3094960
   21      23      33     0.0622479       0.4373816
   21      23      34     0.0059649       0.1844369
   21      23      37    -0.0034972      -0.4279031
   21      24      25    -0.0648234      -0.0438473
   21      24      26     0.0038989       0.1488188
   21      24      30    -0.0394405      -0.0404126
   21      24      31    -0.0038325      -0.0490106
   21      24      32     0.0040010       0.2158292
   21      24      33     0.0622479       0.0794542
   21      24      34    -0.0031925      -0.0581729
   21      24      37    -0.0034972      -0.0508139
   21      25      25    -0.0522764      -0.0700277
   21      25      27     0.0039220       0.2227709
   21      25      28    -0.0030334      -0.0597978
   21      25      30    -0.0394405      -0.0855154
   21      25      31    -0.0032937      -0.0625269
   21      25      32     0.0041825       0.2179866
   21      25      33     0.0622479       0.1210247
   21      25      34     0.0059296       0.3186467
   21      25      37    -0.0034972      -0.0673027
   21      25      57    -0.0125732      -0.0580846
   21      26      26    -0.0027761      -0.5033821
   21      26      28     0.7721789       0.8133461
   21      26      32    -0.0027543      -0.5182637
   21      27      24    -0.0024239      -0.0076380
   21      27      31    -0.0038325      -0.0000668
   21      28      24    -0.0023983      -0.1220354
   21      28      34     0.0059649       0.0459725
   21      29      26     0.0025019       0.0492541
   21      29      32     0.0027478       0.0682829
   21      30      27     0.0026660       0.0705533
   21      30      37    -0.0034972      -0.0027134
   22      23      24     0.0041910       0.1204971
   22      23      25     0.0692860       0.0739990
   22      23      28    -0.0034890      -0.0474804
   22      23      30    -0.0660239      -0.0413474
   22      23      33    -0.0501833      -0.0382511
   22      23      35     0.0041211       0.2246077
   22      23      36    -0.0030514      -0.0545912
   22      23      37    -0.0032111      -0.0456214
   22      24      25    -0.0648234      -0.3747567
   22      24      26     0.0038989       0.2759898
   22      24      29     0.9810010       0.8090891
   22      24      30     0.7706274       0.4059164
   22      24      31     0.0062029       0.1232984
   22      24      33    -0.0501833      -0.3546346
   22      24      35     0.0042977       0.3076606
   22      24      36     0.0060610       0.1912710
   22      24      37    -0.0032111      -0.4106574
   22      25      25    -0.0522764      -0.0799476
   22      25      28    -0.0030334      -0.0685498
   22      25      29     0.0038710       0.2128908
   22      25      30     0.0668512       0.1147411
   22      25      31    -0.0032937      -0.0635793
   22      25      33    -0.0501833      -0.0696282
   22      25      35     0.0042977       0.2072427
   22      25      36     0.0057115       0.3076758
   22      25      37    -0.0032111      -0.0618296
   22      25      57    -0.0125732      -0.0583095
   22      26      26    -0.0027761      -0.0003111
   22      26      28     0.0034890       0.0025815
   22      27      24    -0.0024239      -0.4615892
   22      27      31     0.7632022       0.8105198
   22      27      35    -0.0028574      -0.5264015
   22      28      24     0.0023983       0.0471019
   22      28      35     0.0028792       0.0706482
   22      29      26    -0.0025019      -0.1161188
   22      29      36     0.0060610       0.0479698
   22      30      29     0.0025982       0.0666082
   22      30      37    -0.0032111      -0.0008172
   23      24      25    -0.0648234      -0.0891309
   23      24      30    -0.0660239      -0.0793679
   23      24      32     0.0040010       0.2325284
   23      24      33     0.1486123       0.1151396
   23      24      34    -0.0031925      -0.0736027
   23      24      35     0.0041211       0.2347413
   23      24      36    -0.0030514      -0.0736873
   23      24      37     0.0058206       0.2835020
   23      25      25    -0.0522764      -0.3546398
   23      25      27     0.0039220       0.3167347
   23      25      28    -0.0030334      -0.3871406
   23      25      30    -0.0660239      -0.3734438
   23      25      32     0.9885651       0.8072591
   23      25      33     0.7655667       0.4076949
   23      25      34     0.0059296       0.1599012
   23      25      35     0.0041211       0.3363599
   23      25      36    -0.0030514      -0.4081515
   23      25      37     0.0062721       0.1462477
   23      26      28     0.0056238       0.0540444
   23      26      32    -0.0027543      -0.1177336
   23      27      24     0.0024239       0.0046639
   23      27      35     0.0028574       0.0206615
   23      28      24    -0.0023983      -0.5412646
   23      28      34     0.7739180       0.8102297
   23      28      35    -0.0028792      -0.5785691
   23      29      32     0.0027478       0.0677828
   23      29      36    -0.0030514      -0.0040904
   23      30      27    -0.0026660      -0.1170835
   23      30      37     0.0062721       0.0212814
   24      25      25     0.0522764       0.3282216
   24      25      29     0.0038710       0.3158227
   24      25      30     0.0668512       0.4295556
   24      25      31    -0.0032937      -0.4158009
   24      25      32     0.0040010       0.3282969
   24      25      33     0.1486123       0.4192347
   24      25      34    -0.0031925      -0.4162386
   24      25      35     0.9903476       0.8064042
   24      25      36     0.0057115       0.1634136
   24      25      37     0.0058206       0.1388185
   24      26      26     0.0027761       0.0102329
   24      26      32     0.0027543       0.0221126
   24      27      31     0.0062029       0.0187391
   24      27      35    -0.0028574      -0.1158074
   24      28      34    -0.0031925      -0.0063811
   24      28      35     0.0028792       0.0694199
   24      29      26    -0.0025019      -0.5635269
   24      29      32    -0.0027478      -0.5735236
   24      29      36     0.7730313       0.8110751
   24      30      29    -0.0025982      -0.1163773
   24      30      37     0.0058206       0.0130383
   25      26      28     0.0030334       0.0021870
   25      26      32     0.0027543       0.0110150
   25      27      31     0.0032937       0.0008536
   25      27      35     0.0028574       0.0085436
   25      28      34     0.0059296       0.0222151
   25      28      35    -0.0028792      -0.1127084
   25      29      32    -0.0027478      -0.1121624
   25      29      36     0.0057115       0.0250357
   25      30      27    -0.0026660      -0.5844615
   25      30      29    -0.0025982      -0.5838262
   25      30      37     0.7723820       0.8110358
   26      29      26    -0.0025019      -0.0010577
   26      29      32    -0.0027478      -0.0005982
   27      28      24    -0.0023983      -0.0016099
   27      28      35    -0.0028574      -0.0007297


 Atom-Atom Net Linear NLMO/NPA Bond Orders:                                    

     Atom    1       2       3       4       5       6       7       8       9
     ---- ------  ------  ------  ------  ------  ------  ------  ------  ------
   1.  C  0.0000  0.7787  0.7705  0.9902 -0.0001 -0.0043  0.6960 -0.0118  0.0183
   2.  H  0.7787  0.0000 -0.0034 -0.0008 -0.0026 -0.0020 -0.0132  0.0028  0.0075
   3.  H  0.7705 -0.0034  0.0000 -0.0067 -0.0003 -0.0011 -0.0173 -0.0004 -0.0118
   4.  C  0.9902 -0.0008 -0.0067  0.0000  0.7612  0.7805 -0.0132  0.6892 -0.0097
   5.  H -0.0001 -0.0026 -0.0003  0.7612  0.0000 -0.0032 -0.0006 -0.0105 -0.0025
   6.  H -0.0043 -0.0020 -0.0011  0.7805 -0.0032  0.0000  0.0028 -0.0170 -0.0017
   7.  O  0.6960 -0.0132 -0.0173 -0.0132 -0.0006  0.0028  0.0000  0.0066  0.7432
   8.  O -0.0118  0.0028 -0.0004  0.6892 -0.0105 -0.0170  0.0066  0.0000 -0.0016
   9.  C  0.0183  0.0075 -0.0118 -0.0097 -0.0025 -0.0017  0.7432 -0.0016  0.0000
  10.  C -0.0056  0.0011  0.0080  0.0152  0.0004  0.0005 -0.0235 -0.0002  1.2341
  11.  C -0.0222  0.0056  0.0110  0.0103 -0.0009  0.0008 -0.0396  0.0005  1.5589
  12.  C -0.0083  0.0011  0.0007  0.0020  0.0002 -0.0002  0.0092  0.0006  0.0227
  13.  C -0.0001 -0.0013  0.0010  0.0005  0.0002 -0.0006  0.0059  0.0000  0.0321
  14.  C  0.0097  0.0015 -0.0115 -0.0101  0.0003  0.0000  0.0222 -0.0014 -0.0444
  15.  H  0.0019  0.0008  0.0002  0.0006  0.0001  0.0001 -0.0004  0.0001  0.0033
  16.  H -0.0033  0.0013  0.0005  0.0004 -0.0007 -0.0008  0.0008  0.0017  0.0021
  17.  H -0.0020  0.0001 -0.0001  0.0001  0.0001 -0.0002 -0.0043  0.0001  0.0012
  18.  H  0.0014  0.0007  0.0000  0.0004 -0.0002 -0.0002 -0.0006 -0.0002  0.0010
  19.  H  0.0002  0.0002  0.0002  0.0003  0.0000  0.0002  0.0050  0.0001  0.0065
  20.  C -0.0110 -0.0026  0.0002  0.0178  0.0074 -0.0153 -0.0004  0.7467 -0.0001
  21.  C  0.0045  0.0015 -0.0009 -0.0260  0.0041  0.0011 -0.0020 -0.0399  0.0004
  22.  C  0.0108  0.0000 -0.0008 -0.0043  0.0010 -0.0070 -0.0003 -0.0243 -0.0001
  23.  C  0.0006  0.0001 -0.0001 -0.0003 -0.0008 -0.0007  0.0000  0.0062 -0.0002
  24.  C  0.0025  0.0005 -0.0006 -0.0090 -0.0012  0.0000 -0.0009  0.0090  0.0002
  25.  C -0.0073 -0.0001 -0.0005  0.0104  0.0002  0.0104 -0.0003  0.0218  0.0001
  26.  H -0.0016 -0.0008 -0.0004 -0.0019  0.0004 -0.0005  0.0009  0.0005 -0.0003
  27.  H  0.0002 -0.0003 -0.0002  0.0017  0.0008 -0.0001  0.0003 -0.0004 -0.0002
  28.  H  0.0010  0.0001  0.0003  0.0013  0.0007 -0.0002  0.0004 -0.0027  0.0001
  29.  H -0.0004 -0.0003  0.0000 -0.0019  0.0002 -0.0002  0.0003  0.0008  0.0000
  30.  H  0.0003  0.0001  0.0001 -0.0002  0.0001 -0.0001 -0.0002  0.0057  0.0000

     Atom   10      11      12      13      14      15      16      17      18
     ---- ------  ------  ------  ------  ------  ------  ------  ------  ------
   1.  C -0.0056 -0.0222 -0.0083 -0.0001  0.0097  0.0019 -0.0033 -0.0020  0.0014
   2.  H  0.0011  0.0056  0.0011 -0.0013  0.0015  0.0008  0.0013  0.0001  0.0007
   3.  H  0.0080  0.0110  0.0007  0.0010 -0.0115  0.0002  0.0005 -0.0001  0.0000
   4.  C  0.0152  0.0103  0.0020  0.0005 -0.0101  0.0006  0.0004  0.0001  0.0004
   5.  H  0.0004 -0.0009  0.0002  0.0002  0.0003  0.0001 -0.0007  0.0001 -0.0002
   6.  H  0.0005  0.0008 -0.0002 -0.0006  0.0000  0.0001 -0.0008 -0.0002 -0.0002
   7.  O -0.0235 -0.0396  0.0092  0.0059  0.0222 -0.0004  0.0008 -0.0043 -0.0006
   8.  O -0.0002  0.0005  0.0006  0.0000 -0.0014  0.0001  0.0017  0.0001 -0.0002
   9.  C  1.2341  1.5589  0.0227  0.0321 -0.0444  0.0033  0.0021  0.0012  0.0010
  10.  C  0.0000 -0.0069  1.6546 -0.0478 -0.0451  0.7580  0.0034  0.0017  0.0073
  11.  C -0.0069  0.0000 -0.0446  1.2483 -0.0376  0.0033  0.7463  0.0069  0.0020
  12.  C  1.6546 -0.0446  0.0000  0.0229  1.2670  0.0028  0.0064  0.7676  0.0010
  13.  C -0.0478  1.2483  0.0229  0.0000  1.6491  0.0072  0.0013  0.0014  0.7676
  14.  C -0.0451 -0.0376  1.2670  1.6491  0.0000  0.0089  0.0087  0.0010  0.0020
  15.  H  0.7580  0.0033  0.0028  0.0072  0.0089  0.0000  0.0003 -0.0018 -0.0057
  16.  H  0.0034  0.7463  0.0064  0.0013  0.0087  0.0003  0.0000 -0.0055 -0.0026
  17.  H  0.0017  0.0069  0.7676  0.0014  0.0010 -0.0018 -0.0055  0.0000 -0.0028
  18.  H  0.0073  0.0020  0.0010  0.7676  0.0020 -0.0057 -0.0026 -0.0028  0.0000
  19.  H  0.0011  0.0011  0.0013  0.0027  0.7670  0.0012  0.0014 -0.0033 -0.0032
  20.  C  0.0004  0.0014  0.0000  0.0004 -0.0006  0.0002 -0.0007  0.0000 -0.0003
  21.  C  0.0001  0.0010 -0.0002 -0.0002  0.0001  0.0002 -0.0011 -0.0001 -0.0001
  22.  C  0.0002  0.0012  0.0000 -0.0001  0.0000  0.0001 -0.0002 -0.0001  0.0000
  23.  C -0.0002  0.0009 -0.0003 -0.0004  0.0000  0.0001  0.0010  0.0000  0.0000
  24.  C  0.0000 -0.0002  0.0001 -0.0002  0.0001  0.0000 -0.0001  0.0000  0.0000
  25.  C  0.0002 -0.0003  0.0001 -0.0001  0.0002  0.0001 -0.0006  0.0000  0.0000
  26.  H  0.0003  0.0012  0.0003  0.0000  0.0003 -0.0001  0.0012  0.0000  0.0001
  27.  H -0.0001  0.0004  0.0000  0.0001  0.0000  0.0000  0.0001  0.0000  0.0000
  28.  H  0.0000 -0.0003  0.0000 -0.0001  0.0000  0.0000 -0.0003  0.0000  0.0000
  29.  H  0.0000  0.0001  0.0000  0.0000  0.0000  0.0000  0.0001  0.0000  0.0000
  30.  H  0.0000 -0.0001  0.0000 -0.0001  0.0000  0.0000 -0.0001  0.0000  0.0000

     Atom   19      20      21      22      23      24      25      26      27
     ---- ------  ------  ------  ------  ------  ------  ------  ------  ------
   1.  C  0.0002 -0.0110  0.0045  0.0108  0.0006  0.0025 -0.0073 -0.0016  0.0002
   2.  H  0.0002 -0.0026  0.0015  0.0000  0.0001  0.0005 -0.0001 -0.0008 -0.0003
   3.  H  0.0002  0.0002 -0.0009 -0.0008 -0.0001 -0.0006 -0.0005 -0.0004 -0.0002
   4.  C  0.0003  0.0178 -0.0260 -0.0043 -0.0003 -0.0090  0.0104 -0.0019  0.0017
   5.  H  0.0000  0.0074  0.0041  0.0010 -0.0008 -0.0012  0.0002  0.0004  0.0008
   6.  H  0.0002 -0.0153  0.0011 -0.0070 -0.0007  0.0000  0.0104 -0.0005 -0.0001
   7.  O  0.0050 -0.0004 -0.0020 -0.0003  0.0000 -0.0009 -0.0003  0.0009  0.0003
   8.  O  0.0001  0.7467 -0.0399 -0.0243  0.0062  0.0090  0.0218  0.0005 -0.0004
   9.  C  0.0065 -0.0001  0.0004 -0.0001 -0.0002  0.0002  0.0001 -0.0003 -0.0002
  10.  C  0.0011  0.0004  0.0001  0.0002 -0.0002  0.0000  0.0002  0.0003 -0.0001
  11.  C  0.0011  0.0014  0.0010  0.0012  0.0009 -0.0002 -0.0003  0.0012  0.0004
  12.  C  0.0013  0.0000 -0.0002  0.0000 -0.0003  0.0001  0.0001  0.0003  0.0000
  13.  C  0.0027  0.0004 -0.0002 -0.0001 -0.0004 -0.0002 -0.0001  0.0000  0.0001
  14.  C  0.7670 -0.0006  0.0001  0.0000  0.0000  0.0001  0.0002  0.0003  0.0000
  15.  H  0.0012  0.0002  0.0002  0.0001  0.0001  0.0000  0.0001 -0.0001  0.0000
  16.  H  0.0014 -0.0007 -0.0011 -0.0002  0.0010 -0.0001 -0.0006  0.0012  0.0001
  17.  H -0.0033  0.0000 -0.0001 -0.0001  0.0000  0.0000  0.0000  0.0000  0.0000
  18.  H -0.0032 -0.0003 -0.0001  0.0000  0.0000  0.0000  0.0000  0.0001  0.0000
  19.  H  0.0000 -0.0002  0.0000  0.0000  0.0000  0.0000  0.0000  0.0000  0.0000
  20.  C -0.0002  0.0000  1.5532  1.2330  0.0310  0.0255 -0.0459  0.0026  0.0032
  21.  C  0.0000  1.5532  0.0000 -0.0076  1.2460 -0.0445 -0.0390  0.7646 -0.0043
  22.  C  0.0000  1.2330 -0.0076  0.0000 -0.0493  1.6525 -0.0453  0.0031  0.7567
  23.  C  0.0000  0.0310  1.2460 -0.0493  0.0000  0.0246  1.6482  0.0022  0.0070
  24.  C  0.0000  0.0255 -0.0445  1.6525  0.0246  0.0000  1.2680  0.0066  0.0028
  25.  C  0.0000 -0.0459 -0.0390 -0.0453  1.6482  1.2680  0.0000  0.0081  0.0088
  26.  H  0.0000  0.0026  0.7646  0.0031  0.0022  0.0066  0.0081  0.0000  0.0008
  27.  H  0.0000  0.0032 -0.0043  0.7567  0.0070  0.0028  0.0088  0.0008  0.0000
  28.  H  0.0000  0.0009  0.0025  0.0073  0.7671  0.0012  0.0020 -0.0028 -0.0057
  29.  H  0.0000  0.0012  0.0069  0.0013  0.0015  0.7663  0.0009 -0.0057 -0.0019
  30.  H  0.0000  0.0070  0.0010  0.0011  0.0016  0.0013  0.7658 -0.0010 -0.0009

     Atom   28      29      30
     ---- ------  ------  ------
   1.  C  0.0010 -0.0004  0.0003
   2.  H  0.0001 -0.0003  0.0001
   3.  H  0.0003  0.0000  0.0001
   4.  C  0.0013 -0.0019 -0.0002
   5.  H  0.0007  0.0002  0.0001
   6.  H -0.0002 -0.0002 -0.0001
   7.  O  0.0004  0.0003 -0.0002
   8.  O -0.0027  0.0008  0.0057
   9.  C  0.0001  0.0000  0.0000
  10.  C  0.0000  0.0000  0.0000
  11.  C -0.0003  0.0001 -0.0001
  12.  C  0.0000  0.0000  0.0000
  13.  C -0.0001  0.0000 -0.0001
  14.  C  0.0000  0.0000  0.0000
  15.  H  0.0000  0.0000  0.0000
  16.  H -0.0003  0.0001 -0.0001
  17.  H  0.0000  0.0000  0.0000
  18.  H  0.0000  0.0000  0.0000
  19.  H  0.0000  0.0000  0.0000
  20.  C  0.0009  0.0012  0.0070
  21.  C  0.0025  0.0069  0.0010
  22.  C  0.0073  0.0013  0.0011
  23.  C  0.7671  0.0015  0.0016
  24.  C  0.0012  0.7663  0.0013
  25.  C  0.0020  0.0009  0.7658
  26.  H -0.0028 -0.0057 -0.0010
  27.  H -0.0057 -0.0019 -0.0009
  28.  H  0.0000 -0.0027 -0.0032
  29.  H -0.0027  0.0000 -0.0034
  30.  H -0.0032 -0.0034  0.0000


 Linear NLMO/NPA Bond Orders, Totals by Atom:                                  

     Atom    1
     ---- ------
   1.  C  3.2089
   2.  H  0.7762
   3.  H  0.7367
   4.  C  3.1982
   5.  H  0.7536
   6.  H  0.7410
   7.  O  1.3768
   8.  O  1.3820
   9.  C  3.5590
  10.  C  3.5573
  11.  C  3.4483
  12.  C  3.7070
  13.  C  3.6894
  14.  C  3.5875
  15.  H  0.7814
  16.  H  0.7610
  17.  H  0.7602
  18.  H  0.7674
  19.  H  0.7814
  20.  C  3.5551
  21.  C  3.4213
  22.  C  3.5289
  23.  C  3.6858
  24.  C  3.7047
  25.  C  3.6058
  26.  H  0.7782
  27.  H  0.7688
  28.  H  0.7670
  29.  H  0.7633
  30.  H  0.7749
 Leave Link  607 at Fri May 17 10:27:22 2024, MaxMem=  6291456000 cpu:       707.6
 (Enter /home/madghost/g09/l9999.exe)
 1\1\GINC-NODE-5\SP\RPBE1PBE\Gen\C14H14O2\NATALYA\17-May-2024\0\\#P PBE
 1PBE/GEN pop=nboread\\c2h\\0,1\C,0,-0.556478,-1.383181,-0.192514\H,0,-
 0.361372,-2.403202,-0.525184\H,0,-0.295367,-0.70634,-1.013892\C,0,0.27
 8146,-1.031314,1.044809\H,0,-0.394803,-0.689023,1.831234\H,0,0.821014,
 -1.903508,1.422677\O,0,-1.943002,-1.359099,0.060521\O,0,1.174832,0.039
 453,0.833454\C,0,-2.560468,-0.156233,0.186244\C,0,-3.938676,-0.205191,
 0.385074\C,0,-1.911341,1.072167,0.126142\C,0,-4.660396,0.965474,0.5135
 56\C,0,-2.653566,2.240295,0.256405\C,0,-4.022946,2.199205,0.448489\H,0
 ,-4.421323,-1.174099,0.429568\H,0,-0.839067,1.135234,-0.003061\H,0,-5.
 732779,0.914957,0.664314\H,0,-2.140321,3.194118,0.209875\H,0,-4.590653
 ,3.116008,0.550146\C,0,2.29178,-0.186685,0.099456\C,0,2.613728,-1.4037
 53,-0.491058\C,0,3.149331,0.901494,-0.049198\C,0,3.791344,-1.521674,-1
 .219622\C,0,4.315016,0.769229,-0.778121\C,0,4.646204,-0.444527,-1.3695
 42\H,0,1.961682,-2.261917,-0.396271\H,0,2.880465,1.839766,0.420919\H,0
 ,4.03317,-2.474592,-1.676456\H,0,4.97412,1.623192,-0.885228\H,0,5.5605
 18,-0.545265,-1.941155\\Version=EM64L-G09RevD.01\State=1-A\HF=-691.790
 7768\RMSD=7.952e-09\Dipole=0.3120213,-0.2597506,-0.0664615\Quadrupole=
 0.6708941,3.8090835,-4.4799776,-0.7600721,-3.1945173,0.6302764\PG=C01 
 [X(C14H14O2)]\\@


 MOST BUREAUCRACIES FUNCTION LIKE A SEPTIC TANK.
 THE LARGE CHUNKS RISE TO THE TOP.
 Job cpu time:       0 days  3 hours  7 minutes 28.7 seconds.
 File lengths (MBytes):  RWF=    259 Int=      0 D2E=      0 Chk=     18 Scr=      1
 Normal termination of Gaussian 09 at Fri May 17 10:27:23 2024.
