 Entering Gaussian System, Link 0=/home/madghost/g09/g09
 Input=job101.gjf
 Output=job101.log
 Initial command:
 /home/madghost/g09/l1.exe "/scr/natalya/job101/Gau-3913782.inp" -scrdir="/scr/natalya/job101/"
 Entering Link 1 = /home/madghost/g09/l1.exe PID=   3913786.
  
 Copyright (c) 1988,1990,1992,1993,1995,1998,2003,2009,2013,
            Gaussian, Inc.  All Rights Reserved.
  
 This is part of the Gaussian(R) 09 program.  It is based on
 the Gaussian(R) 03 system (copyright 2003, Gaussian, Inc.),
 the Gaussian(R) 98 system (copyright 1998, Gaussian, Inc.),
 the Gaussian(R) 94 system (copyright 1995, Gaussian, Inc.),
 the Gaussian 92(TM) system (copyright 1992, Gaussian, Inc.),
 the Gaussian 90(TM) system (copyright 1990, Gaussian, Inc.),
 the Gaussian 88(TM) system (copyright 1988, Gaussian, Inc.),
 the Gaussian 86(TM) system (copyright 1986, Carnegie Mellon
 University), and the Gaussian 82(TM) system (copyright 1983,
 Carnegie Mellon University). Gaussian is a federally registered
 trademark of Gaussian, Inc.
  
 This software contains proprietary and confidential information,
 including trade secrets, belonging to Gaussian, Inc.
  
 This software is provided under written license and may be
 used, copied, transmitted, or stored only in accord with that
 written license.
  
 The following legend is applicable only to US Government
 contracts under FAR:
  
                    RESTRICTED RIGHTS LEGEND
  
 Use, reproduction and disclosure by the US Government is
 subject to restrictions as set forth in subparagraphs (a)
 and (c) of the Commercial Computer Software - Restricted
 Rights clause in FAR 52.227-19.
  
 Gaussian, Inc.
 340 Quinnipiac St., Bldg. 40, Wallingford CT 06492
  
  
 ---------------------------------------------------------------
 Warning -- This program may not be used in any manner that
 competes with the business of Gaussian, Inc. or will provide
 assistance to any competitor of Gaussian, Inc.  The licensee
 of this program is prohibited from giving any competitor of
 Gaussian, Inc. access to this program.  By using this program,
 the user acknowledges that Gaussian, Inc. is engaged in the
 business of creating and licensing software in the field of
 computational chemistry and represents and warrants to the
 licensee that it is not a competitor of Gaussian, Inc. and that
 it will not use this program in any manner prohibited above.
 ---------------------------------------------------------------
  

 Cite this work as:
 Gaussian 09, Revision D.01,
 M. J. Frisch, G. W. Trucks, H. B. Schlegel, G. E. Scuseria, 
 M. A. Robb, J. R. Cheeseman, G. Scalmani, V. Barone, B. Mennucci, 
 G. A. Petersson, H. Nakatsuji, M. Caricato, X. Li, H. P. Hratchian, 
 A. F. Izmaylov, J. Bloino, G. Zheng, J. L. Sonnenberg, M. Hada, 
 M. Ehara, K. Toyota, R. Fukuda, J. Hasegawa, M. Ishida, T. Nakajima, 
 Y. Honda, O. Kitao, H. Nakai, T. Vreven, J. A. Montgomery, Jr., 
 J. E. Peralta, F. Ogliaro, M. Bearpark, J. J. Heyd, E. Brothers, 
 K. N. Kudin, V. N. Staroverov, T. Keith, R. Kobayashi, J. Normand, 
 K. Raghavachari, A. Rendell, J. C. Burant, S. S. Iyengar, J. Tomasi, 
 M. Cossi, N. Rega, J. M. Millam, M. Klene, J. E. Knox, J. B. Cross, 
 V. Bakken, C. Adamo, J. Jaramillo, R. Gomperts, R. E. Stratmann, 
 O. Yazyev, A. J. Austin, R. Cammi, C. Pomelli, J. W. Ochterski, 
 R. L. Martin, K. Morokuma, V. G. Zakrzewski, G. A. Voth, 
 P. Salvador, J. J. Dannenberg, S. Dapprich, A. D. Daniels, 
 O. Farkas, J. B. Foresman, J. V. Ortiz, J. Cioslowski, 
 and D. J. Fox, Gaussian, Inc., Wallingford CT, 2013.
 
 ******************************************
 Gaussian 09:  EM64L-G09RevD.01 24-Apr-2013
                17-May-2024 
 ******************************************
 %chk=job101
 %nproc=24
 Will use up to   24 processors via shared memory.
 %mem=48000mb
 --------------------------
 #P PBE1PBE/GEN pop=nboread
 --------------------------
 1/38=1/1;
 2/12=2,17=6,18=5,40=1/2;
 3/5=7,11=2,16=1,25=1,30=1,74=-13/1,2,3;
 4//1;
 5/5=2,38=5/2;
 6/7=2,8=2,9=2,10=2,28=1,40=2/1,7;
 99/5=1,9=1/99;
 Leave Link    1 at Fri May 17 10:26:55 2024, MaxMem=  6291456000 cpu:         0.4
 (Enter /home/madghost/g09/l101.exe)
 ---
 c2h
 ---
 Symbolic Z-matrix:
 Charge =  0 Multiplicity = 1
 6                     0.70803   1.87497  -0.07611 
 1                     1.12418   1.94624   0.93598 
 1                     1.25617   2.56967  -0.72749 
 6                    -0.74373   2.27726  -0.0486 
 1                    -0.78797   3.35104   0.15541 
 1                    -1.21408   2.10039  -1.01994 
 8                     0.81338   0.5582   -0.55923 
 8                    -1.46405   1.6548    0.9908 
 6                     2.03445  -0.02875  -0.5719 
 6                     3.21576   0.6179   -0.2271 
 6                     2.06272  -1.36411  -0.968 
 6                     4.41687  -0.07951  -0.28396 
 6                     3.26459  -2.04226  -1.02025 
 6                     4.45216  -1.40484  -0.67838 
 1                     3.21457   1.65426   0.08267 
 1                     1.12808  -1.84894  -1.2232 
 1                     5.33429   0.43091  -0.01349 
 1                     3.27527  -3.08168  -1.32793 
 1                     5.39296  -1.93992  -0.71898 
 6                    -2.26559   0.58771   0.73425 
 6                    -3.16596   0.26313   1.74589 
 6                    -2.2303   -0.17292  -0.42873 
 6                    -4.02638  -0.80773   1.592 
 6                    -3.10782  -1.23977  -0.57208 
 6                    -4.00826  -1.56537   0.42795 
 1                    -3.17409   0.86822   2.64451 
 1                    -1.50437   0.03187  -1.20241 
 1                    -4.7222   -1.04893   2.38761 
 1                    -3.07189  -1.82887  -1.48171 
 1                    -4.68484  -2.40246   0.30654 
 
 NAtoms=     30 NQM=       30 NQMF=       0 NMMI=      0 NMMIF=      0
                NMic=       0 NMicF=      0.
                    Isotopes and Nuclear Properties:
 (Nuclear quadrupole moments (NQMom) in fm**2, nuclear magnetic moments (NMagM)
  in nuclear magnetons)

  Atom         1           2           3           4           5           6           7           8           9          10
 IAtWgt=          12           1           1          12           1           1          16          16          12          12
 AtmWgt=  12.0000000   1.0078250   1.0078250  12.0000000   1.0078250   1.0078250  15.9949146  15.9949146  12.0000000  12.0000000
 NucSpn=           0           1           1           0           1           1           0           0           0           0
 AtZEff=   0.0000000   0.0000000   0.0000000   0.0000000   0.0000000   0.0000000   0.0000000   0.0000000   0.0000000   0.0000000
 NQMom=    0.0000000   0.0000000   0.0000000   0.0000000   0.0000000   0.0000000   0.0000000   0.0000000   0.0000000   0.0000000
 NMagM=    0.0000000   2.7928460   2.7928460   0.0000000   2.7928460   2.7928460   0.0000000   0.0000000   0.0000000   0.0000000
 AtZNuc=   6.0000000   1.0000000   1.0000000   6.0000000   1.0000000   1.0000000   8.0000000   8.0000000   6.0000000   6.0000000

  Atom        11          12          13          14          15          16          17          18          19          20
 IAtWgt=          12          12          12          12           1           1           1           1           1          12
 AtmWgt=  12.0000000  12.0000000  12.0000000  12.0000000   1.0078250   1.0078250   1.0078250   1.0078250   1.0078250  12.0000000
 NucSpn=           0           0           0           0           1           1           1           1           1           0
 AtZEff=   0.0000000   0.0000000   0.0000000   0.0000000   0.0000000   0.0000000   0.0000000   0.0000000   0.0000000   0.0000000
 NQMom=    0.0000000   0.0000000   0.0000000   0.0000000   0.0000000   0.0000000   0.0000000   0.0000000   0.0000000   0.0000000
 NMagM=    0.0000000   0.0000000   0.0000000   0.0000000   2.7928460   2.7928460   2.7928460   2.7928460   2.7928460   0.0000000
 AtZNuc=   6.0000000   6.0000000   6.0000000   6.0000000   1.0000000   1.0000000   1.0000000   1.0000000   1.0000000   6.0000000

  Atom        21          22          23          24          25          26          27          28          29          30
 IAtWgt=          12          12          12          12          12           1           1           1           1           1
 AtmWgt=  12.0000000  12.0000000  12.0000000  12.0000000  12.0000000   1.0078250   1.0078250   1.0078250   1.0078250   1.0078250
 NucSpn=           0           0           0           0           0           1           1           1           1           1
 AtZEff=   0.0000000   0.0000000   0.0000000   0.0000000   0.0000000   0.0000000   0.0000000   0.0000000   0.0000000   0.0000000
 NQMom=    0.0000000   0.0000000   0.0000000   0.0000000   0.0000000   0.0000000   0.0000000   0.0000000   0.0000000   0.0000000
 NMagM=    0.0000000   0.0000000   0.0000000   0.0000000   0.0000000   2.7928460   2.7928460   2.7928460   2.7928460   2.7928460
 AtZNuc=   6.0000000   6.0000000   6.0000000   6.0000000   6.0000000   1.0000000   1.0000000   1.0000000   1.0000000   1.0000000
 Leave Link  101 at Fri May 17 10:26:55 2024, MaxMem=  6291456000 cpu:         2.2
 (Enter /home/madghost/g09/l202.exe)
                          Input orientation:                          
 ---------------------------------------------------------------------
 Center     Atomic      Atomic             Coordinates (Angstroms)
 Number     Number       Type             X           Y           Z
 ---------------------------------------------------------------------
      1          6           0        0.708033    1.874968   -0.076109
      2          1           0        1.124183    1.946236    0.935979
      3          1           0        1.256171    2.569674   -0.727486
      4          6           0       -0.743725    2.277256   -0.048596
      5          1           0       -0.787967    3.351041    0.155412
      6          1           0       -1.214075    2.100391   -1.019938
      7          8           0        0.813380    0.558202   -0.559229
      8          8           0       -1.464045    1.654801    0.990795
      9          6           0        2.034448   -0.028745   -0.571895
     10          6           0        3.215760    0.617899   -0.227097
     11          6           0        2.062717   -1.364114   -0.968001
     12          6           0        4.416865   -0.079510   -0.283956
     13          6           0        3.264594   -2.042264   -1.020251
     14          6           0        4.452161   -1.404843   -0.678382
     15          1           0        3.214566    1.654260    0.082670
     16          1           0        1.128079   -1.848935   -1.223195
     17          1           0        5.334287    0.430909   -0.013488
     18          1           0        3.275271   -3.081675   -1.327926
     19          1           0        5.392957   -1.939918   -0.718975
     20          6           0       -2.265586    0.587710    0.734253
     21          6           0       -3.165958    0.263125    1.745885
     22          6           0       -2.230304   -0.172921   -0.428734
     23          6           0       -4.026378   -0.807729    1.591997
     24          6           0       -3.107822   -1.239768   -0.572078
     25          6           0       -4.008264   -1.565365    0.427945
     26          1           0       -3.174095    0.868215    2.644508
     27          1           0       -1.504368    0.031865   -1.202406
     28          1           0       -4.722201   -1.048933    2.387610
     29          1           0       -3.071893   -1.828873   -1.481713
     30          1           0       -4.684843   -2.402455    0.306539
 ---------------------------------------------------------------------
                    Distance matrix (angstroms):
                    1          2          3          4          5
     1  C    0.000000
     2  H    1.096623   0.000000
     3  H    1.098801   1.781351   0.000000
     4  C    1.506716   2.137298   2.132131   0.000000
     5  H    2.114334   2.497815   2.359776   1.093888   0.000000
     6  H    2.153167   3.052348   2.531377   1.093625   1.768372
     7  O    1.406547   2.063706   2.066493   2.374967   3.297722
     8  O    2.429955   2.605161   3.345005   1.409484   2.008028
     9  C    2.372615   2.646283   2.716929   3.648250   4.462954
    10  C    2.809220   2.737137   2.810659   4.296842   4.862737
    11  C    3.622470   3.932481   4.022816   4.688390   5.623268
    12  C    4.197454   4.053843   4.147877   5.678154   6.249160
    13  C    4.772014   4.931159   5.038794   5.972352   6.847859
    14  C    5.013820   4.991125   5.100348   6.399353   7.125489
    15  H    2.521236   2.276639   2.308603   4.009167   4.347945
    16  H    3.919145   4.366391   4.448173   4.680682   5.710651
    17  H    4.846798   4.574132   4.659951   6.352359   6.785108
    18  H    5.720670   5.918812   6.031172   6.819615   7.751776
    19  H    6.075783   6.005289   6.119599   7.476151   8.183069
    20  C    3.340079   3.657434   4.297399   2.404887   3.186599
    21  C    4.574441   4.679115   5.567132   3.625479   4.209474
    22  C    3.598891   4.195933   4.445963   2.890984   3.852255
    23  C    5.691580   5.877326   6.685221   4.794214   5.463190
    24  C    4.950587   5.507697   5.794863   4.269947   5.194853
    25  C    5.859473   6.239507   6.793220   5.064587   5.883505
    26  H    4.846259   4.749357   5.821732   3.891645   4.248956
    27  H    3.091972   3.891887   3.779762   2.636596   3.657025
    28  H    6.641276   6.727442   7.651083   5.729477   6.310363
    29  H    5.475582   6.140337   6.216769   4.933000   5.893047
    30  H    6.893902   7.283687   7.815812   6.128477   6.950626
                    6          7          8          9         10
     6  H    0.000000
     7  O    2.588662   0.000000
     8  O    2.074628   2.965092   0.000000
     9  C    3.909842   1.354871   4.185186   0.000000
    10  C    4.738124   2.425965   4.945604   1.390155   0.000000
    11  C    4.768947   2.328784   5.038728   1.393165   2.409735
    12  C    6.082855   3.669817   6.262422   2.400291   1.390060
    13  C    6.100825   3.603251   6.330294   2.401779   2.776319
    14  C    6.671548   4.136239   6.866518   2.783940   2.413261
    15  H    4.585590   2.716445   4.765930   2.157230   1.081666
    16  H    4.596104   2.516783   4.888458   2.135132   3.381700
    17  H    6.832361   4.555506   6.980245   3.378171   2.137464
    18  H    6.863155   4.460998   7.090260   3.381066   3.860339
    19  H    7.750326   5.219066   7.928669   3.867014   3.394784
    20  C    2.543829   3.339760   1.359031   4.536114   5.565093
    21  C    3.851645   4.608227   2.324528   5.701010   6.689159
    22  C    2.559334   3.132983   2.437782   4.269589   5.506875
    23  C    4.815435   5.469625   3.604310   6.482504   7.601979
    24  C    3.865685   4.313779   3.677377   5.282946   6.599820
    25  C    4.831317   5.360252   4.142381   6.314685   7.575107
    26  H    4.334524   5.124451   2.505545   6.186979   7.009923
    27  H    2.096751   2.462248   2.728677   3.595057   4.855334
    28  H    5.816921   6.473747   4.458346   7.446594   8.522103
    29  H    4.370794   4.652360   4.564478   5.490259   6.862604
    30  H    5.837927   6.304403   5.225234   7.180182   8.475071
                   11         12         13         14         15
    11  C    0.000000
    12  C    2.767695   0.000000
    13  C    1.380987   2.392125   0.000000
    14  C    2.407277   1.383230   1.390502   0.000000
    15  H    3.397241   2.141471   3.857879   3.386584   0.000000
    16  H    1.083385   3.850863   2.154822   3.397582   4.281482
    17  H    3.851801   1.084133   3.378429   2.142479   2.449296
    18  H    2.133038   3.377293   1.084045   2.149126   4.941917
    19  H    3.388814   2.145487   2.152016   1.083074   4.278567
    20  C    5.043956   6.792428   6.370082   7.148002   5.620868
    21  C    6.111639   7.857281   7.370097   8.166696   6.738889
    22  C    4.487737   6.649402   5.834230   6.799654   5.765998
    23  C    6.628743   8.679738   7.842588   8.797545   7.795558
    24  C    5.187166   7.619063   6.438365   7.562532   6.984031
    25  C    6.232654   8.584717   7.430960   8.533963   7.915458
    26  H    6.742234   8.191261   7.959778   8.623698   6.927905
    27  H    3.837681   5.993076   5.203671   6.149713   5.152856
    28  H    7.575921   9.570767   8.740087   9.679664   8.695532
    29  H    5.181131   7.783084   6.356851   7.578689   7.355207
    30  H    6.944938   9.412005   8.067444   9.243925   8.883002
                   16         17         18         19         20
    16  H    0.000000
    17  H    4.934903   0.000000
    18  H    2.478114   4.278497   0.000000
    19  H    4.295544   2.474262   2.481738   0.000000
    20  C    4.613654   7.638179   6.958309   8.194758   0.000000
    21  C    5.631606   8.682034   7.881969   9.175182   1.392632
    22  C    3.836525   7.600005   6.291324   7.830749   1.390087
    23  C    5.964716   9.577779   8.186016   9.764544   2.404862
    24  C    4.328729   8.623943   6.686389   8.530828   2.399070
    25  C    5.402656   9.563641   7.644093   9.478326   2.786841
    26  H    6.391458   8.924614   8.542610   9.622526   2.133810
    27  H    3.235370   6.952695   5.705684   7.189904   2.153849
    28  H    6.921249  10.444528   9.049685  10.618905   3.383363
    29  H    4.207968   8.827580   6.471449   8.499870   3.376464
    30  H    6.036268  10.416973   8.154522  10.140398   3.869991
                   21         22         23         24         25
    21  C    0.000000
    22  C    2.407188   0.000000
    23  C    1.382292   2.777088   0.000000
    24  C    2.763154   1.388794   2.390319   0.000000
    25  C    2.406205   2.415355   1.389013   1.384505   0.000000
    26  H    1.083385   3.379278   2.154751   3.846350   3.395777
    27  H    3.392165   1.080504   3.856701   2.141361   3.388021
    28  H    2.134291   3.861184   1.084135   3.376743   2.148650
    29  H    3.847427   2.135232   3.376606   1.084330   2.143133
    30  H    3.388812   3.396500   2.151541   2.147278   1.083152
                   26         27         28         29         30
    26  H    0.000000
    27  H    4.276239   0.000000
    28  H    2.477516   4.940728   0.000000
    29  H    4.930561   2.448978   4.278257   0.000000
    30  H    4.294850   4.279982   2.482796   2.475570   0.000000
 Stoichiometry    C14H14O2
 Framework group  C1[X(C14H14O2)]
 Deg. of freedom    84
 Full point group                 C1      NOp   1
 Largest Abelian subgroup         C1      NOp   1
 Largest concise Abelian subgroup C1      NOp   1
                         Standard orientation:                         
 ---------------------------------------------------------------------
 Center     Atomic      Atomic             Coordinates (Angstroms)
 Number     Number       Type             X           Y           Z
 ---------------------------------------------------------------------
      1          6           0        0.621347    1.879258   -0.323921
      2          1           0        0.824703    2.177418    0.711612
      3          1           0        1.254990    2.480939   -0.990134
      4          6           0       -0.824080    2.154562   -0.648180
      5          1           0       -0.957650    3.239829   -0.678920
      6          1           0       -1.083686    1.756302   -1.633071
      7          8           0        0.881373    0.508308   -0.500717
      8          8           0       -1.706613    1.682939    0.344468
      9          6           0        2.106564    0.035648   -0.167289
     10          6           0        3.164726    0.834197    0.251215
     11          6           0        2.274731   -1.343443   -0.270913
     12          6           0        4.384261    0.243383    0.560957
     13          6           0        3.493214   -1.914478    0.039480
     14          6           0        4.558509   -1.124976    0.458205
     15          1           0        3.054057    1.906701    0.337741
     16          1           0        1.432793   -1.945681   -0.590559
     17          1           0        5.205127    0.872105    0.886886
     18          1           0        3.612894   -2.988760   -0.042658
     19          1           0        5.512439   -1.576052    0.702330
     20          6           0       -2.390979    0.522325    0.166749
     21          6           0       -3.458093    0.321407    1.038714
     22          6           0       -2.090473   -0.440425   -0.789886
     23          6           0       -4.220293   -0.828304    0.949549
     24          6           0       -2.871689   -1.585658   -0.872896
     25          6           0       -3.936522   -1.789787   -0.011899
     26          1           0       -3.672372    1.083914    1.777897
     27          1           0       -1.235785   -0.326084   -1.440980
     28          1           0       -5.048163   -0.971515    1.634728
     29          1           0       -2.628758   -2.332272   -1.620776
     30          1           0       -4.536017   -2.689070   -0.083406
 ---------------------------------------------------------------------
 Rotational constants (GHZ):      1.1016215      0.2617600      0.2263288
 Leave Link  202 at Fri May 17 10:26:55 2024, MaxMem=  6291456000 cpu:         0.1
 (Enter /home/madghost/g09/l301.exe)
 General basis read from cards:  (5D, 7F)
 Centers:       2      3      5      6     15     16     17     18     19     26
 Centers:      27     28     29     30
 S 3 1.00
     Exponent=  3.4061341000D+01 Coefficients=  6.0251978000D-03
     Exponent=  5.1235746000D+00 Coefficients=  4.5021094000D-02
     Exponent=  1.1646626000D+00 Coefficients=  2.0189726000D-01
 S 1 1.00
     Exponent=  3.2723041000D-01 Coefficients=  1.0000000000D+00
 S 1 1.00
     Exponent=  1.0307241000D-01 Coefficients=  1.0000000000D+00
 P 1 1.00
     Exponent=  1.4070000000D+00 Coefficients=  1.0000000000D+00
 P 1 1.00
     Exponent=  3.8800000000D-01 Coefficients=  1.0000000000D+00
 D 1 1.00
     Exponent=  1.0570000000D+00 Coefficients=  1.0000000000D+00
 ****
 Centers:       1      4      9     10     11     12     13     14     20     21
 Centers:      22     23     24     25
 S 6 1.00
     Exponent=  1.3575349682D+04 Coefficients=  2.2245814352D-04
     Exponent=  2.0352333680D+03 Coefficients=  1.7232738252D-03
     Exponent=  4.6322562359D+02 Coefficients=  8.9255715314D-03
     Exponent=  1.3120019598D+02 Coefficients=  3.5727984502D-02
     Exponent=  4.2853015891D+01 Coefficients=  1.1076259931D-01
     Exponent=  1.5584185766D+01 Coefficients=  2.4295627626D-01
 S 2 1.00
     Exponent=  6.2067138508D+00 Coefficients=  4.1440263448D-01
     Exponent=  2.5764896527D+00 Coefficients=  2.3744968655D-01
 S 1 1.00
     Exponent=  5.7696339419D-01 Coefficients=  1.0000000000D+00
 S 1 1.00
     Exponent=  2.2972831358D-01 Coefficients=  1.0000000000D+00
 S 1 1.00
     Exponent=  9.5164440028D-02 Coefficients=  1.0000000000D+00
 P 4 1.00
     Exponent=  3.4697232244D+01 Coefficients=  5.3333657805D-03
     Exponent=  7.9582622826D+00 Coefficients=  3.5864109092D-02
     Exponent=  2.3780826883D+00 Coefficients=  1.4215873329D-01
     Exponent=  8.1433208183D-01 Coefficients=  3.4270471845D-01
 P 1 1.00
     Exponent=  2.8887547253D-01 Coefficients=  4.6445822433D-01
 P 1 1.00
     Exponent=  1.0056823671D-01 Coefficients=  2.4955789874D-01
 D 1 1.00
     Exponent=  1.0970000000D+00 Coefficients=  1.0000000000D+00
 D 1 1.00
     Exponent=  3.1800000000D-01 Coefficients=  1.0000000000D+00
 F 1 1.00
     Exponent=  7.6100000000D-01 Coefficients=  1.0000000000D+00
 ****
 Centers:       7      8
 S 6 1.00
     Exponent=  2.7032382631D+04 Coefficients=  2.1726302465D-04
     Exponent=  4.0523871392D+03 Coefficients=  1.6838662199D-03
     Exponent=  9.2232722710D+02 Coefficients=  8.7395616265D-03
     Exponent=  2.6124070989D+02 Coefficients=  3.5239968808D-02
     Exponent=  8.5354641351D+01 Coefficients=  1.1153519115D-01
     Exponent=  3.1035035245D+01 Coefficients=  2.5588953961D-01
 S 2 1.00
     Exponent=  1.2260860728D+01 Coefficients=  3.9768730901D-01
     Exponent=  4.9987076005D+00 Coefficients=  2.4627849430D-01
 S 1 1.00
     Exponent=  1.1703108158D+00 Coefficients=  1.0000000000D+00
 S 1 1.00
     Exponent=  4.6474740994D-01 Coefficients=  1.0000000000D+00
 S 1 1.00
     Exponent=  1.8504536357D-01 Coefficients=  1.0000000000D+00
 P 4 1.00
     Exponent=  6.3274954801D+01 Coefficients=  6.0685103418D-03
     Exponent=  1.4627049379D+01 Coefficients=  4.1912575824D-02
     Exponent=  4.4501223456D+00 Coefficients=  1.6153841088D-01
     Exponent=  1.5275799647D+00 Coefficients=  3.5706951311D-01
 P 1 1.00
     Exponent=  5.2935117943D-01 Coefficients=  4.4794207502D-01
 P 1 1.00
     Exponent=  1.7478421270D-01 Coefficients=  2.4446069663D-01
 D 1 1.00
     Exponent=  2.3140000000D+00 Coefficients=  1.0000000000D+00
 D 1 1.00
     Exponent=  6.4500000000D-01 Coefficients=  1.0000000000D+00
 F 1 1.00
     Exponent=  1.4280000000D+00 Coefficients=  1.0000000000D+00
 ****
 Ernie: Thresh=  0.10000D-02 Tol=  0.10000D-05 Strict=F.
 There are   786 symmetry adapted cartesian basis functions of A   symmetry.
 There are   692 symmetry adapted basis functions of A   symmetry.
   692 basis functions,  1054 primitive gaussians,   786 cartesian basis functions
    57 alpha electrons       57 beta electrons
       nuclear repulsion energy      1011.3129399812 Hartrees.
 IExCor= 1009 DFT=T Ex+Corr=PBE1PBE ExCW=0 ScaHFX=  0.250000
 ScaDFX=  0.750000  0.750000  1.000000  1.000000 ScalE2=  1.000000  1.000000
 IRadAn=      0 IRanWt=     -1 IRanGd=            0 ICorTp=0 IEmpDi=  4
 NAtoms=   30 NActive=   30 NUniq=   30 SFac= 1.00D+00 NAtFMM=   60 NAOKFM=F Big=F
 Integral buffers will be    131072 words long.
 Raffenetti 2 integral format.
 Two-electron integral symmetry is turned on.
 Leave Link  301 at Fri May 17 10:26:55 2024, MaxMem=  6291456000 cpu:         2.0
 (Enter /home/madghost/g09/l302.exe)
 NPDir=0 NMtPBC=     1 NCelOv=     1 NCel=       1 NClECP=     1 NCelD=      1
         NCelK=      1 NCelE2=     1 NClLst=     1 CellRange=     0.0.
 One-electron integrals computed using PRISM.
 NBasis=   692 RedAO= T EigKep=  8.48D-06  NBF=   692
 NBsUse=   692 1.00D-06 EigRej= -1.00D+00 NBFU=   692
 Precomputing XC quadrature grid using
 IXCGrd= 4 IRadAn=           0 IRanWt=          -1 IRanGd=           0 AccXCQ= 0.00D+00.
 Generated NRdTot=       0 NPtTot=           0 NUsed=           0 NTot=          32
 NSgBfM=   766   766   766   766   766 MxSgAt=    30 MxSgA2=    30.
 Leave Link  302 at Fri May 17 10:26:57 2024, MaxMem=  6291456000 cpu:        36.0
 (Enter /home/madghost/g09/l303.exe)
 DipDrv:  MaxL=1.
 Leave Link  303 at Fri May 17 10:26:57 2024, MaxMem=  6291456000 cpu:         3.2
 (Enter /home/madghost/g09/l401.exe)
 ExpMin= 9.52D-02 ExpMax= 2.70D+04 ExpMxC= 9.22D+02 IAcc=2 IRadAn=         4 AccDes= 0.00D+00
 Harris functional with IExCor= 1009 and IRadAn=       4 diagonalized for initial guess.
 HarFok:  IExCor= 1009 AccDes= 0.00D+00 IRadAn=         4 IDoV= 1 UseB2=F ITyADJ=14
 ICtDFT=  3500011 ScaDFX=  1.000000  1.000000  1.000000  1.000000
 FoFCou: FMM=F IPFlag=           0 FMFlag=      100000 FMFlg1=           0
         NFxFlg=           0 DoJE=T BraDBF=F KetDBF=T FulRan=T
         wScrn=  0.000000 ICntrl=     500 IOpCl=  0 I1Cent=   200000004 NGrid=           0
         NMat0=    1 NMatS0=      1 NMatT0=    0 NMatD0=    1 NMtDS0=    0 NMtDT0=    0
 Petite list used in FoFCou.
 Harris En= -692.032596855537    
 JPrj=0 DoOrth=F DoCkMO=F.
 Leave Link  401 at Fri May 17 10:27:00 2024, MaxMem=  6291456000 cpu:        71.0
 (Enter /home/madghost/g09/l502.exe)
 Closed shell SCF:
 Using DIIS extrapolation, IDIIS=  1040.
 Integral symmetry usage will be decided dynamically.
 IVT=     1896530 IEndB=     1896530 NGot=  6291456000 MDV=  6290194693
 LenX=  6290194693 LenY=  6289576111
 Requested convergence on RMS density matrix=1.00D-08 within 128 cycles.
 Requested convergence on MAX density matrix=1.00D-06.
 Requested convergence on             energy=1.00D-06.
 No special actions if energy rises.
 Fock matrices will be formed incrementally for  20 cycles.
 Integral accuracy reduced to 1.0D-05 until final iterations.

 Cycle   1  Pass 0  IDiag  1:
 FoFJK:  IHMeth= 1 ICntrl=       0 DoSepK=F KAlg= 0 I1Cent=   0 FoldK=F
 IRaf= 770000000 NMat=   1 IRICut=       1 DoRegI=T DoRafI=F ISym2E= 0.
 FoFCou: FMM=F IPFlag=           0 FMFlag=      100000 FMFlg1=           0
         NFxFlg=           0 DoJE=F BraDBF=F KetDBF=F FulRan=T
         wScrn=  0.000000 ICntrl=       0 IOpCl=  0 I1Cent=           0 NGrid=           0
         NMat0=    1 NMatS0=      1 NMatT0=    0 NMatD0=    1 NMtDS0=    0 NMtDT0=    0
 Symmetry not used in FoFCou.
 E= -691.421622016241    
 DIIS: error= 1.85D-02 at cycle   1 NSaved=   1.
 NSaved= 1 IEnMin= 1 EnMin= -691.421622016241     IErMin= 1 ErrMin= 1.85D-02
 ErrMax= 1.85D-02  0.00D+00 EMaxC= 1.00D-01 BMatC= 3.94D-01 BMatP= 3.94D-01
 IDIUse=3 WtCom= 8.15D-01 WtEn= 1.85D-01
 Coeff-Com:  0.100D+01
 Coeff-En:   0.100D+01
 Coeff:      0.100D+01
 Gap=     0.264 Goal=   None    Shift=    0.000
 GapD=    0.264 DampG=1.000 DampE=0.500 DampFc=0.5000 IDamp=-1.
 Damping current iteration by 5.00D-01
 RMSDP=3.57D-03 MaxDP=2.55D-01              OVMax= 2.03D-01

 Cycle   2  Pass 0  IDiag  1:
 RMSU=  1.79D-03    CP:  9.95D-01
 E= -691.591699311094     Delta-E=       -0.170077294853 Rises=F Damp=T
 DIIS: error= 4.65D-03 at cycle   2 NSaved=   2.
 NSaved= 2 IEnMin= 2 EnMin= -691.591699311094     IErMin= 2 ErrMin= 4.65D-03
 ErrMax= 4.65D-03  0.00D+00 EMaxC= 1.00D-01 BMatC= 2.82D-02 BMatP= 3.94D-01
 IDIUse=3 WtCom= 9.54D-01 WtEn= 4.65D-02
 Coeff-Com: -0.961D-02 0.101D+01
 Coeff-En:   0.464D-01 0.954D+00
 Coeff:     -0.701D-02 0.101D+01
 Gap=     0.291 Goal=   None    Shift=    0.000
 RMSDP=1.08D-03 MaxDP=5.36D-02 DE=-1.70D-01 OVMax= 1.44D-01

 Cycle   3  Pass 0  IDiag  1:
 RMSU=  9.67D-04    CP:  9.99D-01  1.27D+00
 E= -691.775598128198     Delta-E=       -0.183898817104 Rises=F Damp=F
 DIIS: error= 5.18D-03 at cycle   3 NSaved=   3.
 NSaved= 3 IEnMin= 3 EnMin= -691.775598128198     IErMin= 2 ErrMin= 4.65D-03
 ErrMax= 5.18D-03  0.00D+00 EMaxC= 1.00D-01 BMatC= 1.79D-02 BMatP= 2.82D-02
 IDIUse=3 WtCom= 9.48D-01 WtEn= 5.18D-02
 Coeff-Com: -0.689D-01 0.460D+00 0.609D+00
 Coeff-En:   0.000D+00 0.000D+00 0.100D+01
 Coeff:     -0.653D-01 0.436D+00 0.629D+00
 Gap=     0.231 Goal=   None    Shift=    0.000
 RMSDP=4.50D-04 MaxDP=4.03D-02 DE=-1.84D-01 OVMax= 6.55D-02

 Cycle   4  Pass 0  IDiag  1:
 RMSU=  4.07D-04    CP:  9.93D-01  1.20D+00  8.56D-01
 E= -691.786935713411     Delta-E=       -0.011337585213 Rises=F Damp=F
 DIIS: error= 4.05D-03 at cycle   4 NSaved=   4.
 NSaved= 4 IEnMin= 4 EnMin= -691.786935713411     IErMin= 4 ErrMin= 4.05D-03
 ErrMax= 4.05D-03  0.00D+00 EMaxC= 1.00D-01 BMatC= 6.86D-03 BMatP= 1.79D-02
 IDIUse=3 WtCom= 9.60D-01 WtEn= 4.05D-02
 Coeff-Com: -0.431D-01 0.155D+00 0.410D+00 0.478D+00
 Coeff-En:   0.000D+00 0.000D+00 0.298D+00 0.702D+00
 Coeff:     -0.413D-01 0.149D+00 0.406D+00 0.487D+00
 Gap=     0.223 Goal=   None    Shift=    0.000
 RMSDP=2.76D-04 MaxDP=2.89D-02 DE=-1.13D-02 OVMax= 2.82D-02

 Cycle   5  Pass 0  IDiag  1:
 RMSU=  1.02D-04    CP:  9.95D-01  1.30D+00  9.60D-01  6.44D-01
 E= -691.793866924049     Delta-E=       -0.006931210638 Rises=F Damp=F
 DIIS: error= 5.58D-04 at cycle   5 NSaved=   5.
 NSaved= 5 IEnMin= 5 EnMin= -691.793866924049     IErMin= 5 ErrMin= 5.58D-04
 ErrMax= 5.58D-04  0.00D+00 EMaxC= 1.00D-01 BMatC= 1.97D-04 BMatP= 6.86D-03
 IDIUse=3 WtCom= 9.94D-01 WtEn= 5.58D-03
 Coeff-Com: -0.122D-01 0.282D-01 0.118D+00 0.215D+00 0.650D+00
 Coeff-En:   0.000D+00 0.000D+00 0.000D+00 0.000D+00 0.100D+01
 Coeff:     -0.121D-01 0.281D-01 0.118D+00 0.214D+00 0.652D+00
 Gap=     0.223 Goal=   None    Shift=    0.000
 RMSDP=5.81D-05 MaxDP=3.10D-03 DE=-6.93D-03 OVMax= 3.63D-03

 Cycle   6  Pass 0  IDiag  1:
 RMSU=  4.36D-05    CP:  9.96D-01  1.32D+00  9.86D-01  6.67D-01  1.06D+00
 E= -691.794049705698     Delta-E=       -0.000182781649 Rises=F Damp=F
 DIIS: error= 8.90D-05 at cycle   6 NSaved=   6.
 NSaved= 6 IEnMin= 6 EnMin= -691.794049705698     IErMin= 6 ErrMin= 8.90D-05
 ErrMax= 8.90D-05  0.00D+00 EMaxC= 1.00D-01 BMatC= 1.43D-05 BMatP= 1.97D-04
 IDIUse=1 WtCom= 1.00D+00 WtEn= 0.00D+00
 Coeff-Com: -0.460D-02 0.836D-02 0.451D-01 0.922D-01 0.338D+00 0.521D+00
 Coeff:     -0.460D-02 0.836D-02 0.451D-01 0.922D-01 0.338D+00 0.521D+00
 Gap=     0.224 Goal=   None    Shift=    0.000
 RMSDP=2.92D-05 MaxDP=2.14D-03 DE=-1.83D-04 OVMax= 8.93D-04

 Cycle   7  Pass 0  IDiag  1:
 RMSU=  2.18D-05    CP:  9.96D-01  1.32D+00  9.93D-01  6.91D-01  1.08D+00
                    CP:  1.22D+00
 E= -691.794059887812     Delta-E=       -0.000010182114 Rises=F Damp=F
 DIIS: error= 4.47D-05 at cycle   7 NSaved=   7.
 NSaved= 7 IEnMin= 7 EnMin= -691.794059887812     IErMin= 7 ErrMin= 4.47D-05
 ErrMax= 4.47D-05  0.00D+00 EMaxC= 1.00D-01 BMatC= 7.99D-07 BMatP= 1.43D-05
 IDIUse=1 WtCom= 1.00D+00 WtEn= 0.00D+00
 Coeff-Com: -0.816D-03 0.851D-03 0.823D-02 0.186D-01 0.854D-01 0.226D+00
 Coeff-Com:  0.661D+00
 Coeff:     -0.816D-03 0.851D-03 0.823D-02 0.186D-01 0.854D-01 0.226D+00
 Coeff:      0.661D+00
 Gap=     0.224 Goal=   None    Shift=    0.000
 RMSDP=4.05D-05 MaxDP=2.77D-03 DE=-1.02D-05 OVMax= 3.73D-04

 Cycle   8  Pass 0  IDiag  1:
 RMSU=  1.70D-05    CP:  9.96D-01  1.33D+00  9.98D-01  7.09D-01  1.05D+00
                    CP:  1.54D+00  2.37D+00
 E= -691.794054645618     Delta-E=        0.000005242194 Rises=F Damp=F
 DIIS: error= 2.42D-05 at cycle   8 NSaved=   8.
 NSaved= 8 IEnMin= 7 EnMin= -691.794059887812     IErMin= 8 ErrMin= 2.42D-05
 ErrMax= 2.42D-05  0.00D+00 EMaxC= 1.00D-01 BMatC= 2.66D-07 BMatP= 7.99D-07
 IDIUse=1 WtCom= 1.00D+00 WtEn= 0.00D+00
 Coeff-Com: -0.199D-04-0.305D-03 0.477D-03 0.169D-02 0.179D-01 0.847D-01
 Coeff-Com:  0.404D+00 0.492D+00
 Coeff:     -0.199D-04-0.305D-03 0.477D-03 0.169D-02 0.179D-01 0.847D-01
 Coeff:      0.404D+00 0.492D+00
 Gap=     0.224 Goal=   None    Shift=    0.000
 RMSDP=3.55D-05 MaxDP=2.20D-03 DE= 5.24D-06 OVMax= 1.72D-04

 Cycle   9  Pass 0  IDiag  1:
 RMSU=  1.46D-05    CP:  9.96D-01  1.33D+00  9.95D-01  7.21D-01  9.61D-01
                    CP:  1.71D+00  3.00D+00  2.05D+00
 E= -691.794050321602     Delta-E=        0.000004324007 Rises=F Damp=F
 DIIS: error= 1.72D-05 at cycle   9 NSaved=   9.
 NSaved= 9 IEnMin= 7 EnMin= -691.794059887850     IErMin= 9 ErrMin= 1.72D-05
 ErrMax= 1.72D-05  0.00D+00 EMaxC= 1.00D-01 BMatC= 7.77D-08 BMatP= 2.66D-07
 IDIUse=1 WtCom= 1.00D+00 WtEn= 0.00D+00
 Coeff-Com: -0.361D-04-0.183D-03 0.580D-03 0.165D-02 0.150D-01 0.659D-01
 Coeff-Com:  0.302D+00 0.369D+00 0.246D+00
 Coeff:     -0.361D-04-0.183D-03 0.580D-03 0.165D-02 0.150D-01 0.659D-01
 Coeff:      0.302D+00 0.369D+00 0.246D+00
 Gap=     0.224 Goal=   None    Shift=    0.000
 RMSDP=2.43D-05 MaxDP=2.00D-03 DE= 4.32D-06 OVMax= 1.57D-05

 Cycle  10  Pass 0  IDiag  1:
 RMSU=  5.57D-06    CP:  9.96D-01  1.32D+00  9.88D-01  7.19D-01  8.65D-01
                    CP:  1.66D+00  3.00D+00  2.40D+00  1.84D+00
 E= -691.794050534938     Delta-E=       -0.000000213336 Rises=F Damp=F
 DIIS: error= 1.82D-05 at cycle  10 NSaved=  10.
 NSaved=10 IEnMin= 7 EnMin= -691.794059887850     IErMin= 9 ErrMin= 1.72D-05
 ErrMax= 1.82D-05  0.00D+00 EMaxC= 1.00D-01 BMatC= 8.26D-08 BMatP= 7.77D-08
 IDIUse=1 WtCom= 1.00D+00 WtEn= 0.00D+00
 Coeff-Com: -0.385D-04-0.181D-03 0.604D-03 0.172D-02 0.153D-01 0.668D-01
 Coeff-Com:  0.305D+00 0.365D+00 0.107D+00 0.139D+00
 Coeff:     -0.385D-04-0.181D-03 0.604D-03 0.172D-02 0.153D-01 0.668D-01
 Coeff:      0.305D+00 0.365D+00 0.107D+00 0.139D+00
 Gap=     0.224 Goal=   None    Shift=    0.000
 RMSDP=6.78D-06 MaxDP=4.39D-04 DE=-2.13D-07 OVMax= 3.86D-06

 Initial convergence to 1.0D-05 achieved.  Increase integral accuracy.
 Cycle  11  Pass 1  IDiag  1:
 E= -691.793974000437     Delta-E=        0.000076534501 Rises=F Damp=F
 DIIS: error= 4.34D-04 at cycle   1 NSaved=   1.
 NSaved= 1 IEnMin= 1 EnMin= -691.793974000437     IErMin= 1 ErrMin= 4.34D-04
 ErrMax= 4.34D-04  0.00D+00 EMaxC= 1.00D-01 BMatC= 6.32D-05 BMatP= 6.32D-05
 IDIUse=3 WtCom= 9.96D-01 WtEn= 4.34D-03
 Coeff-Com:  0.100D+01
 Coeff-En:   0.100D+01
 Coeff:      0.100D+01
 Gap=     0.224 Goal=   None    Shift=    0.000
 RMSDP=6.78D-06 MaxDP=4.39D-04 DE= 7.65D-05 OVMax= 1.25D-03

 Cycle  12  Pass 1  IDiag  1:
 RMSU=  1.83D-03    CP:  8.60D-01
 E= -691.794022868253     Delta-E=       -0.000048867816 Rises=F Damp=F
 DIIS: error= 7.01D-06 at cycle   2 NSaved=   2.
 NSaved= 2 IEnMin= 2 EnMin= -691.794022868253     IErMin= 2 ErrMin= 7.01D-06
 ErrMax= 7.01D-06  0.00D+00 EMaxC= 1.00D-01 BMatC= 1.89D-08 BMatP= 6.32D-05
 IDIUse=1 WtCom= 1.00D+00 WtEn= 0.00D+00
 Coeff-Com: -0.970D-02 0.101D+01
 Coeff:     -0.970D-02 0.101D+01
 Gap=     0.224 Goal=   None    Shift=    0.000
 RMSDP=2.78D-05 MaxDP=1.06D-03 DE=-4.89D-05 OVMax= 6.36D-05

 Cycle  13  Pass 1  IDiag  1:
 RMSU=  1.65D-05    CP:  8.58D-01  1.01D+00
 E= -691.794022881243     Delta-E=       -0.000000012990 Rises=F Damp=F
 DIIS: error= 5.96D-06 at cycle   3 NSaved=   3.
 NSaved= 3 IEnMin= 3 EnMin= -691.794022881243     IErMin= 3 ErrMin= 5.96D-06
 ErrMax= 5.96D-06  0.00D+00 EMaxC= 1.00D-01 BMatC= 1.27D-08 BMatP= 1.89D-08
 IDIUse=1 WtCom= 1.00D+00 WtEn= 0.00D+00
 Coeff-Com: -0.497D-02 0.501D+00 0.504D+00
 Coeff:     -0.497D-02 0.501D+00 0.504D+00
 Gap=     0.224 Goal=   None    Shift=    0.000
 RMSDP=3.59D-07 MaxDP=1.84D-05 DE=-1.30D-08 OVMax= 5.16D-05

 Cycle  14  Pass 1  IDiag  1:
 RMSU=  2.42D-07    CP:  8.58D-01  1.01D+00  1.01D+00
 E= -691.794022892646     Delta-E=       -0.000000011377 Rises=F Damp=F
 DIIS: error= 2.52D-06 at cycle   4 NSaved=   4.
 NSaved= 4 IEnMin= 4 EnMin= -691.794022892646     IErMin= 4 ErrMin= 2.52D-06
 ErrMax= 2.52D-06  0.00D+00 EMaxC= 1.00D-01 BMatC= 2.21D-09 BMatP= 1.27D-08
 IDIUse=1 WtCom= 1.00D+00 WtEn= 0.00D+00
 Coeff-Com: -0.624D-03 0.559D-01 0.292D+00 0.653D+00
 Coeff:     -0.624D-03 0.559D-01 0.292D+00 0.653D+00
 Gap=     0.224 Goal=   None    Shift=    0.000
 RMSDP=3.04D-07 MaxDP=1.66D-05 DE=-1.14D-08 OVMax= 1.82D-05

 Cycle  15  Pass 1  IDiag  1:
 RMSU=  1.67D-07    CP:  8.58D-01  1.01D+00  1.02D+00  1.22D+00
 E= -691.794022894982     Delta-E=       -0.000000002336 Rises=F Damp=F
 DIIS: error= 4.64D-07 at cycle   5 NSaved=   5.
 NSaved= 5 IEnMin= 5 EnMin= -691.794022894982     IErMin= 5 ErrMin= 4.64D-07
 ErrMax= 4.64D-07  0.00D+00 EMaxC= 1.00D-01 BMatC= 1.82D-10 BMatP= 2.21D-09
 IDIUse=1 WtCom= 1.00D+00 WtEn= 0.00D+00
 Coeff-Com:  0.830D-04-0.122D-01 0.108D+00 0.337D+00 0.567D+00
 Coeff:      0.830D-04-0.122D-01 0.108D+00 0.337D+00 0.567D+00
 Gap=     0.224 Goal=   None    Shift=    0.000
 RMSDP=6.47D-08 MaxDP=3.53D-06 DE=-2.34D-09 OVMax= 4.42D-06

 Cycle  16  Pass 1  IDiag  1:
 RMSU=  4.08D-08    CP:  8.58D-01  1.01D+00  1.02D+00  1.33D+00  9.99D-01
 E= -691.794022895105     Delta-E=       -0.000000000123 Rises=F Damp=F
 DIIS: error= 8.75D-08 at cycle   6 NSaved=   6.
 NSaved= 6 IEnMin= 6 EnMin= -691.794022895105     IErMin= 6 ErrMin= 8.75D-08
 ErrMax= 8.75D-08  0.00D+00 EMaxC= 1.00D-01 BMatC= 1.04D-11 BMatP= 1.82D-10
 IDIUse=1 WtCom= 1.00D+00 WtEn= 0.00D+00
 Coeff-Com:  0.731D-04-0.893D-02 0.390D-01 0.135D+00 0.288D+00 0.547D+00
 Coeff:      0.731D-04-0.893D-02 0.390D-01 0.135D+00 0.288D+00 0.547D+00
 Gap=     0.224 Goal=   None    Shift=    0.000
 RMSDP=1.24D-08 MaxDP=1.19D-06 DE=-1.23D-10 OVMax= 1.23D-06

 Cycle  17  Pass 1  IDiag  1:
 RMSU=  5.83D-09    CP:  8.58D-01  1.01D+00  1.02D+00  1.34D+00  1.04D+00
                    CP:  8.65D-01
 E= -691.794022895124     Delta-E=       -0.000000000019 Rises=F Damp=F
 DIIS: error= 4.69D-08 at cycle   7 NSaved=   7.
 NSaved= 7 IEnMin= 7 EnMin= -691.794022895124     IErMin= 7 ErrMin= 4.69D-08
 ErrMax= 4.69D-08  0.00D+00 EMaxC= 1.00D-01 BMatC= 1.22D-12 BMatP= 1.04D-11
 IDIUse=1 WtCom= 1.00D+00 WtEn= 0.00D+00
 Coeff-Com:  0.343D-04-0.400D-02 0.120D-01 0.452D-01 0.111D+00 0.307D+00
 Coeff-Com:  0.529D+00
 Coeff:      0.343D-04-0.400D-02 0.120D-01 0.452D-01 0.111D+00 0.307D+00
 Coeff:      0.529D+00
 Gap=     0.224 Goal=   None    Shift=    0.000
 RMSDP=2.65D-09 MaxDP=1.66D-07 DE=-1.91D-11 OVMax= 4.13D-07

 SCF Done:  E(RPBE1PBE) =  -691.794022895     A.U. after   17 cycles
            NFock= 17  Conv=0.26D-08     -V/T= 2.0047
 KE= 6.885849851010D+02 PE=-3.634061008915D+03 EE= 1.242369060938D+03
 Leave Link  502 at Fri May 17 10:31:43 2024, MaxMem=  6291456000 cpu:      6782.0
 (Enter /home/madghost/g09/l601.exe)
 Copying SCF densities to generalized density rwf, IOpCl= 0 IROHF=0.

 **********************************************************************

            Population analysis using the SCF density.

 **********************************************************************

 Orbital symmetries:
       Occupied  (A) (A) (A) (A) (A) (A) (A) (A) (A) (A) (A) (A)
                 (A) (A) (A) (A) (A) (A) (A) (A) (A) (A) (A) (A)
                 (A) (A) (A) (A) (A) (A) (A) (A) (A) (A) (A) (A)
                 (A) (A) (A) (A) (A) (A) (A) (A) (A) (A) (A) (A)
                 (A) (A) (A) (A) (A) (A) (A) (A) (A)
       Virtual   (A) (A) (A) (A) (A) (A) (A) (A) (A) (A) (A) (A)
                 (A) (A) (A) (A) (A) (A) (A) (A) (A) (A) (A) (A)
                 (A) (A) (A) (A) (A) (A) (A) (A) (A) (A) (A) (A)
                 (A) (A) (A) (A) (A) (A) (A) (A) (A) (A) (A) (A)
                 (A) (A) (A) (A) (A) (A) (A) (A) (A) (A) (A) (A)
                 (A) (A) (A) (A) (A) (A) (A) (A) (A) (A) (A) (A)
                 (A) (A) (A) (A) (A) (A) (A) (A) (A) (A) (A) (A)
                 (A) (A) (A) (A) (A) (A) (A) (A) (A) (A) (A) (A)
                 (A) (A) (A) (A) (A) (A) (A) (A) (A) (A) (A) (A)
                 (A) (A) (A) (A) (A) (A) (A) (A) (A) (A) (A) (A)
                 (A) (A) (A) (A) (A) (A) (A) (A) (A) (A) (A) (A)
                 (A) (A) (A) (A) (A) (A) (A) (A) (A) (A) (A) (A)
                 (A) (A) (A) (A) (A) (A) (A) (A) (A) (A) (A) (A)
                 (A) (A) (A) (A) (A) (A) (A) (A) (A) (A) (A) (A)
                 (A) (A) (A) (A) (A) (A) (A) (A) (A) (A) (A) (A)
                 (A) (A) (A) (A) (A) (A) (A) (A) (A) (A) (A) (A)
                 (A) (A) (A) (A) (A) (A) (A) (A) (A) (A) (A) (A)
                 (A) (A) (A) (A) (A) (A) (A) (A) (A) (A) (A) (A)
                 (A) (A) (A) (A) (A) (A) (A) (A) (A) (A) (A) (A)
                 (A) (A) (A) (A) (A) (A) (A) (A) (A) (A) (A) (A)
                 (A) (A) (A) (A) (A) (A) (A) (A) (A) (A) (A) (A)
                 (A) (A) (A) (A) (A) (A) (A) (A) (A) (A) (A) (A)
                 (A) (A) (A) (A) (A) (A) (A) (A) (A) (A) (A) (A)
                 (A) (A) (A) (A) (A) (A) (A) (A) (A) (A) (A) (A)
                 (A) (A) (A) (A) (A) (A) (A) (A) (A) (A) (A) (A)
                 (A) (A) (A) (A) (A) (A) (A) (A) (A) (A) (A) (A)
                 (A) (A) (A) (A) (A) (A) (A) (A) (A) (A) (A) (A)
                 (A) (A) (A) (A) (A) (A) (A) (A) (A) (A) (A) (A)
                 (A) (A) (A) (A) (A) (A) (A) (A) (A) (A) (A) (A)
                 (A) (A) (A) (A) (A) (A) (A) (A) (A) (A) (A) (A)
                 (A) (A) (A) (A) (A) (A) (A) (A) (A) (A) (A) (A)
                 (A) (A) (A) (A) (A) (A) (A) (A) (A) (A) (A) (A)
                 (A) (A) (A) (A) (A) (A) (A) (A) (A) (A) (A) (A)
                 (A) (A) (A) (A) (A) (A) (A) (A) (A) (A) (A) (A)
                 (A) (A) (A) (A) (A) (A) (A) (A) (A) (A) (A) (A)
                 (A) (A) (A) (A) (A) (A) (A) (A) (A) (A) (A) (A)
                 (A) (A) (A) (A) (A) (A) (A) (A) (A) (A) (A) (A)
                 (A) (A) (A) (A) (A) (A) (A) (A) (A) (A) (A) (A)
                 (A) (A) (A) (A) (A) (A) (A) (A) (A) (A) (A) (A)
                 (A) (A) (A) (A) (A) (A) (A) (A) (A) (A) (A) (A)
                 (A) (A) (A) (A) (A) (A) (A) (A) (A) (A) (A) (A)
                 (A) (A) (A) (A) (A) (A) (A) (A) (A) (A) (A) (A)
                 (A) (A) (A) (A) (A) (A) (A) (A) (A) (A) (A) (A)
                 (A) (A) (A) (A) (A) (A) (A) (A) (A) (A) (A) (A)
                 (A) (A) (A) (A) (A) (A) (A) (A) (A) (A) (A) (A)
                 (A) (A) (A) (A) (A) (A) (A) (A) (A) (A) (A) (A)
                 (A) (A) (A) (A) (A) (A) (A) (A) (A) (A) (A) (A)
                 (A) (A) (A) (A) (A) (A) (A) (A) (A) (A) (A) (A)
                 (A) (A) (A) (A) (A) (A) (A) (A) (A) (A) (A) (A)
                 (A) (A) (A) (A) (A) (A) (A) (A) (A) (A) (A) (A)
                 (A) (A) (A) (A) (A) (A) (A) (A) (A) (A) (A) (A)
                 (A) (A) (A) (A) (A) (A) (A) (A) (A) (A) (A) (A)
                 (A) (A) (A) (A) (A) (A) (A) (A) (A) (A) (A)
 The electronic state is 1-A.
 Alpha  occ. eigenvalues --  -19.24614 -19.23922 -10.28861 -10.28744 -10.28695
 Alpha  occ. eigenvalues --  -10.28287 -10.22990 -10.22860 -10.22705 -10.22362
 Alpha  occ. eigenvalues --  -10.22297 -10.22280 -10.22055 -10.21834 -10.21692
 Alpha  occ. eigenvalues --  -10.21497  -1.11539  -1.09897  -0.88597  -0.87898
 Alpha  occ. eigenvalues --   -0.81854  -0.77687  -0.77082  -0.76823  -0.74296
 Alpha  occ. eigenvalues --   -0.68294  -0.63316  -0.63103  -0.61750  -0.59993
 Alpha  occ. eigenvalues --   -0.56992  -0.56001  -0.51571  -0.51308  -0.50221
 Alpha  occ. eigenvalues --   -0.49138  -0.48296  -0.46819  -0.45474  -0.45176
 Alpha  occ. eigenvalues --   -0.43786  -0.43486  -0.42840  -0.40596  -0.39903
 Alpha  occ. eigenvalues --   -0.38236  -0.37731  -0.37459  -0.36681  -0.35075
 Alpha  occ. eigenvalues --   -0.34373  -0.33762  -0.32974  -0.27106  -0.26447
 Alpha  occ. eigenvalues --   -0.24048  -0.23342
 Alpha virt. eigenvalues --   -0.00989  -0.00342   0.00593   0.01040   0.04560
 Alpha virt. eigenvalues --    0.05911   0.06133   0.07869   0.08992   0.09452
 Alpha virt. eigenvalues --    0.09841   0.10167   0.10611   0.11004   0.11517
 Alpha virt. eigenvalues --    0.12301   0.13098   0.13373   0.14133   0.15138
 Alpha virt. eigenvalues --    0.16000   0.16144   0.16464   0.17760   0.19513
 Alpha virt. eigenvalues --    0.20486   0.20941   0.21724   0.21980   0.22273
 Alpha virt. eigenvalues --    0.22732   0.23413   0.23491   0.24254   0.24712
 Alpha virt. eigenvalues --    0.24842   0.25222   0.25494   0.26076   0.27719
 Alpha virt. eigenvalues --    0.27894   0.28545   0.28924   0.30059   0.30531
 Alpha virt. eigenvalues --    0.30983   0.31764   0.32142   0.33146   0.34167
 Alpha virt. eigenvalues --    0.35179   0.35625   0.36482   0.36648   0.36966
 Alpha virt. eigenvalues --    0.37275   0.37759   0.37891   0.38651   0.39046
 Alpha virt. eigenvalues --    0.39566   0.40727   0.41033   0.41556   0.42292
 Alpha virt. eigenvalues --    0.42601   0.43143   0.43521   0.43960   0.44313
 Alpha virt. eigenvalues --    0.44725   0.45059   0.45295   0.45886   0.46118
 Alpha virt. eigenvalues --    0.47252   0.47477   0.48450   0.49444   0.50030
 Alpha virt. eigenvalues --    0.50351   0.50513   0.50743   0.51513   0.51938
 Alpha virt. eigenvalues --    0.52124   0.52874   0.54394   0.54616   0.55336
 Alpha virt. eigenvalues --    0.56837   0.58244   0.58971   0.60413   0.60738
 Alpha virt. eigenvalues --    0.62224   0.63135   0.64125   0.65289   0.66188
 Alpha virt. eigenvalues --    0.66462   0.67449   0.67909   0.68385   0.69186
 Alpha virt. eigenvalues --    0.69612   0.70219   0.70642   0.71026   0.72169
 Alpha virt. eigenvalues --    0.72772   0.72846   0.73589   0.74782   0.76523
 Alpha virt. eigenvalues --    0.76897   0.77452   0.78493   0.79040   0.80406
 Alpha virt. eigenvalues --    0.80835   0.81232   0.82241   0.82875   0.83753
 Alpha virt. eigenvalues --    0.84444   0.84949   0.86026   0.86871   0.88193
 Alpha virt. eigenvalues --    0.88823   0.89454   0.91362   0.91703   0.92289
 Alpha virt. eigenvalues --    0.93126   0.94540   0.95642   0.96348   0.97231
 Alpha virt. eigenvalues --    0.98103   0.98891   0.99042   0.99636   1.00086
 Alpha virt. eigenvalues --    1.00400   1.01190   1.01764   1.03679   1.04361
 Alpha virt. eigenvalues --    1.05297   1.06257   1.07009   1.07958   1.08432
 Alpha virt. eigenvalues --    1.09582   1.10396   1.11008   1.11666   1.11858
 Alpha virt. eigenvalues --    1.12893   1.14043   1.15104   1.15428   1.16027
 Alpha virt. eigenvalues --    1.17768   1.18532   1.19880   1.20230   1.20757
 Alpha virt. eigenvalues --    1.21218   1.22392   1.23167   1.23598   1.24028
 Alpha virt. eigenvalues --    1.24553   1.24814   1.26313   1.28536   1.29648
 Alpha virt. eigenvalues --    1.29851   1.30871   1.31714   1.32562   1.32734
 Alpha virt. eigenvalues --    1.33311   1.33628   1.34025   1.34758   1.35240
 Alpha virt. eigenvalues --    1.36768   1.37680   1.38127   1.38510   1.39599
 Alpha virt. eigenvalues --    1.40438   1.40998   1.42355   1.43195   1.43951
 Alpha virt. eigenvalues --    1.45954   1.46115   1.46255   1.47823   1.48088
 Alpha virt. eigenvalues --    1.48905   1.49693   1.50258   1.51260   1.52483
 Alpha virt. eigenvalues --    1.52923   1.53688   1.53951   1.54836   1.55613
 Alpha virt. eigenvalues --    1.56330   1.57325   1.58620   1.60116   1.60538
 Alpha virt. eigenvalues --    1.61297   1.61854   1.63088   1.63641   1.66183
 Alpha virt. eigenvalues --    1.66872   1.67274   1.68604   1.69265   1.69818
 Alpha virt. eigenvalues --    1.70843   1.71368   1.72960   1.74488   1.75185
 Alpha virt. eigenvalues --    1.76302   1.78760   1.80925   1.81756   1.84367
 Alpha virt. eigenvalues --    1.85600   1.86582   1.86737   1.89101   1.92142
 Alpha virt. eigenvalues --    1.93318   1.93900   1.94409   1.96943   1.97874
 Alpha virt. eigenvalues --    1.99270   1.99927   2.00393   2.01733   2.01884
 Alpha virt. eigenvalues --    2.02867   2.03875   2.04775   2.06820   2.08515
 Alpha virt. eigenvalues --    2.09958   2.11244   2.13179   2.14528   2.16059
 Alpha virt. eigenvalues --    2.17458   2.20828   2.23660   2.25310   2.26390
 Alpha virt. eigenvalues --    2.27400   2.28032   2.29303   2.29523   2.31398
 Alpha virt. eigenvalues --    2.33410   2.34896   2.35143   2.36287   2.37832
 Alpha virt. eigenvalues --    2.38729   2.39026   2.39921   2.40334   2.42164
 Alpha virt. eigenvalues --    2.43066   2.45926   2.46893   2.49575   2.50874
 Alpha virt. eigenvalues --    2.51489   2.55461   2.55931   2.58081   2.61264
 Alpha virt. eigenvalues --    2.63143   2.64913   2.65795   2.66785   2.67164
 Alpha virt. eigenvalues --    2.68052   2.69404   2.70638   2.71249   2.72930
 Alpha virt. eigenvalues --    2.73888   2.74792   2.74890   2.76386   2.77742
 Alpha virt. eigenvalues --    2.78403   2.78675   2.79337   2.79796   2.81055
 Alpha virt. eigenvalues --    2.81317   2.82159   2.82944   2.83863   2.84332
 Alpha virt. eigenvalues --    2.84590   2.86124   2.86536   2.88956   2.90578
 Alpha virt. eigenvalues --    2.91519   2.91692   2.92207   2.92499   2.92848
 Alpha virt. eigenvalues --    2.93316   2.94347   2.95074   2.96258   2.98327
 Alpha virt. eigenvalues --    2.98639   2.99814   3.00438   3.02523   3.03446
 Alpha virt. eigenvalues --    3.04123   3.04424   3.04943   3.05385   3.05797
 Alpha virt. eigenvalues --    3.06160   3.06670   3.06860   3.07457   3.08218
 Alpha virt. eigenvalues --    3.09214   3.09727   3.10349   3.11150   3.11978
 Alpha virt. eigenvalues --    3.12331   3.13726   3.14113   3.15634   3.16080
 Alpha virt. eigenvalues --    3.16328   3.16684   3.17089   3.17715   3.18501
 Alpha virt. eigenvalues --    3.20490   3.21355   3.21619   3.21824   3.22443
 Alpha virt. eigenvalues --    3.22860   3.23996   3.24685   3.25625   3.26650
 Alpha virt. eigenvalues --    3.27792   3.28544   3.29237   3.30110   3.32210
 Alpha virt. eigenvalues --    3.32946   3.33390   3.34017   3.34446   3.34879
 Alpha virt. eigenvalues --    3.34961   3.35765   3.36534   3.36598   3.37252
 Alpha virt. eigenvalues --    3.38359   3.38678   3.39563   3.40113   3.40903
 Alpha virt. eigenvalues --    3.41357   3.42990   3.43029   3.43556   3.46139
 Alpha virt. eigenvalues --    3.46407   3.47601   3.48762   3.49930   3.50330
 Alpha virt. eigenvalues --    3.51283   3.52322   3.52997   3.54524   3.54695
 Alpha virt. eigenvalues --    3.56350   3.56819   3.57189   3.58557   3.59499
 Alpha virt. eigenvalues --    3.60173   3.62073   3.62647   3.65747   3.66684
 Alpha virt. eigenvalues --    3.67150   3.68061   3.69002   3.69808   3.70828
 Alpha virt. eigenvalues --    3.71034   3.72762   3.74415   3.76171   3.77713
 Alpha virt. eigenvalues --    3.77882   3.78512   3.78732   3.79012   3.79291
 Alpha virt. eigenvalues --    3.79450   3.80303   3.80663   3.81961   3.82507
 Alpha virt. eigenvalues --    3.82779   3.83632   3.84428   3.84996   3.85392
 Alpha virt. eigenvalues --    3.85616   3.86495   3.86588   3.87104   3.89302
 Alpha virt. eigenvalues --    3.89646   3.89983   3.91795   3.92629   3.93822
 Alpha virt. eigenvalues --    3.95013   3.95306   3.98101   3.98982   4.00184
 Alpha virt. eigenvalues --    4.02357   4.02739   4.03833   4.05411   4.07709
 Alpha virt. eigenvalues --    4.08128   4.08886   4.10105   4.10571   4.10912
 Alpha virt. eigenvalues --    4.11842   4.13565   4.14726   4.16805   4.17255
 Alpha virt. eigenvalues --    4.18045   4.18696   4.20132   4.20612   4.21530
 Alpha virt. eigenvalues --    4.22853   4.23083   4.23753   4.24449   4.25109
 Alpha virt. eigenvalues --    4.26134   4.26692   4.27567   4.28198   4.28478
 Alpha virt. eigenvalues --    4.29435   4.30240   4.30657   4.32584   4.32854
 Alpha virt. eigenvalues --    4.33270   4.34295   4.34737   4.36790   4.37854
 Alpha virt. eigenvalues --    4.38243   4.40781   4.41521   4.42917   4.44396
 Alpha virt. eigenvalues --    4.46545   4.48975   4.52157   4.52548   4.53933
 Alpha virt. eigenvalues --    4.56360   4.57734   4.58966   4.61214   4.62164
 Alpha virt. eigenvalues --    4.65534   4.66107   4.66952   4.67598   4.68220
 Alpha virt. eigenvalues --    4.69431   4.69733   4.70207   4.71603   4.72718
 Alpha virt. eigenvalues --    4.73120   4.74466   4.76004   4.76464   4.77934
 Alpha virt. eigenvalues --    4.79205   4.79700   4.79912   4.80855   4.81466
 Alpha virt. eigenvalues --    4.82669   4.83835   4.85288   4.87243   4.88253
 Alpha virt. eigenvalues --    4.89185   4.92165   4.92571   4.97500   4.99040
 Alpha virt. eigenvalues --    5.00121   5.00599   5.01011   5.02013   5.03761
 Alpha virt. eigenvalues --    5.06766   5.09141   5.10550   5.12318   5.14196
 Alpha virt. eigenvalues --    5.17332   5.21966   5.22427   5.22953   5.23300
 Alpha virt. eigenvalues --    5.30050   5.30954   5.31616   5.32761   5.33555
 Alpha virt. eigenvalues --    5.36118   5.36479   5.37394   5.37937   5.38945
 Alpha virt. eigenvalues --    5.40903   5.42499   5.43107   5.44058   5.45296
 Alpha virt. eigenvalues --    5.47174   5.48296   5.53503   5.55914   5.58254
 Alpha virt. eigenvalues --    5.59749   5.61518   5.62450   5.64603   5.65566
 Alpha virt. eigenvalues --    5.69661   5.71087   5.74765   5.75010   5.80634
 Alpha virt. eigenvalues --    5.82338   5.90321   5.92835   5.95739   5.97763
 Alpha virt. eigenvalues --    6.01245   6.05832   6.10630   6.13365   6.14856
 Alpha virt. eigenvalues --    6.16719   6.28952   6.30743   6.49237   6.51450
 Alpha virt. eigenvalues --    6.53957   6.58896   6.77009   6.78629   6.85289
 Alpha virt. eigenvalues --    6.93043   6.96437   6.97081   7.00593   7.08496
 Alpha virt. eigenvalues --    7.34825   7.43289   7.51916   7.55519  22.66585
 Alpha virt. eigenvalues --   22.73690  23.20566  23.21646  23.27951  23.28800
 Alpha virt. eigenvalues --   23.31528  23.32794  23.38157  23.38942  23.43290
 Alpha virt. eigenvalues --   23.57033  24.16383  24.16538  44.61466  44.67085
          Condensed to atoms (all electrons):
               1          2          3          4          5          6
     1  C    4.835840   0.386349   0.389474   0.349534  -0.032220  -0.075785
     2  H    0.386349   0.617400  -0.045382  -0.014066  -0.002937   0.009907
     3  H    0.389474  -0.045382   0.626063  -0.017449   0.001490  -0.001889
     4  C    0.349534  -0.014066  -0.017449   4.697721   0.390884   0.443054
     5  H   -0.032220  -0.002937   0.001490   0.390884   0.574976  -0.012642
     6  H   -0.075785   0.009907  -0.001889   0.443054  -0.012642   0.599469
     7  O    0.269087  -0.042566  -0.040255  -0.063791   0.004699   0.000132
     8  O   -0.052500   0.003554   0.004949   0.282514  -0.033088  -0.041345
     9  C   -0.046921  -0.001571  -0.003771  -0.000330   0.000019   0.000194
    10  C   -0.016992   0.004641   0.001868  -0.002406   0.000195  -0.000519
    11  C   -0.002100   0.002204   0.001227  -0.000117   0.000060  -0.000017
    12  C   -0.000936  -0.002711  -0.000345  -0.000075  -0.000016  -0.000049
    13  C   -0.000621  -0.000452   0.000181   0.000086  -0.000006  -0.000006
    14  C    0.000010   0.000143  -0.000194  -0.000018   0.000002   0.000004
    15  H    0.003267  -0.000066  -0.000221  -0.000026   0.000206  -0.000040
    16  H   -0.000608   0.000175   0.000075  -0.000292   0.000012   0.000010
    17  H   -0.000103   0.000019   0.000034  -0.000003   0.000000   0.000000
    18  H    0.000030  -0.000001   0.000000   0.000000   0.000000   0.000000
    19  H    0.000003   0.000002   0.000000   0.000000   0.000000   0.000000
    20  C    0.007926  -0.004904   0.002144  -0.076420   0.008839  -0.020411
    21  C   -0.002300   0.001012  -0.000072  -0.002545  -0.000336   0.006905
    22  C   -0.007380   0.000991   0.000308   0.005105  -0.001569   0.015383
    23  C    0.000621  -0.000111  -0.000006  -0.000406   0.000055  -0.001297
    24  C    0.002730  -0.000358  -0.000024  -0.003821   0.000228  -0.005291
    25  C   -0.000432   0.000080  -0.000003   0.000585  -0.000049   0.001010
    26  H   -0.000468   0.000142   0.000002   0.000361  -0.000278   0.000426
    27  H   -0.009163   0.001852  -0.000815   0.006683  -0.000091   0.007486
    28  H    0.000002  -0.000001   0.000000   0.000010   0.000000  -0.000004
    29  H    0.000006  -0.000004   0.000003   0.000001  -0.000002  -0.000050
    30  H    0.000000   0.000000   0.000000  -0.000005   0.000000   0.000005
               7          8          9         10         11         12
     1  C    0.269087  -0.052500  -0.046921  -0.016992  -0.002100  -0.000936
     2  H   -0.042566   0.003554  -0.001571   0.004641   0.002204  -0.002711
     3  H   -0.040255   0.004949  -0.003771   0.001868   0.001227  -0.000345
     4  C   -0.063791   0.282514  -0.000330  -0.002406  -0.000117  -0.000075
     5  H    0.004699  -0.033088   0.000019   0.000195   0.000060  -0.000016
     6  H    0.000132  -0.041345   0.000194  -0.000519  -0.000017  -0.000049
     7  O    7.861237   0.002111   0.354011  -0.064457  -0.056224   0.005476
     8  O    0.002111   7.842834   0.002035   0.000048   0.000076  -0.000031
     9  C    0.354011   0.002035   4.657054   0.462401   0.483757  -0.011305
    10  C   -0.064457   0.000048   0.462401   4.981807   0.004037   0.486034
    11  C   -0.056224   0.000076   0.483757   0.004037   4.930875  -0.052811
    12  C    0.005476  -0.000031  -0.011305   0.486034  -0.052811   4.830976
    13  C    0.004457  -0.000025  -0.029371  -0.056097   0.525860  -0.032651
    14  C    0.000223   0.000004  -0.048919  -0.048113  -0.038728   0.565121
    15  H   -0.005231   0.000068  -0.038873   0.413642   0.001862  -0.012890
    16  H    0.002992   0.000088  -0.044657   0.009555   0.421441  -0.001819
    17  H   -0.000219   0.000000   0.001551  -0.023518   0.002057   0.399855
    18  H   -0.000172   0.000000   0.006603  -0.000496  -0.028058   0.006404
    19  H    0.000021   0.000000   0.000165   0.007825   0.005409  -0.029843
    20  C    0.006300   0.354916  -0.000034  -0.000054  -0.000296   0.000010
    21  C   -0.000123  -0.051071  -0.000111  -0.000032  -0.000078   0.000001
    22  C   -0.015635  -0.080369  -0.001121  -0.000577   0.000564   0.000042
    23  C   -0.000101   0.002969   0.000008   0.000001   0.000001   0.000000
    24  C   -0.001211   0.010313  -0.000018   0.000070  -0.000183  -0.000002
    25  C    0.000086  -0.000618  -0.000010   0.000000  -0.000025   0.000000
    26  H    0.000005   0.011097  -0.000007  -0.000003   0.000000   0.000000
    27  H    0.020634  -0.006559  -0.001390  -0.000063   0.000444  -0.000044
    28  H    0.000000  -0.000198   0.000000   0.000000   0.000000   0.000000
    29  H   -0.000108  -0.000200  -0.000016  -0.000003   0.000021   0.000000
    30  H    0.000001   0.000015   0.000000   0.000000   0.000000   0.000000
              13         14         15         16         17         18
     1  C   -0.000621   0.000010   0.003267  -0.000608  -0.000103   0.000030
     2  H   -0.000452   0.000143  -0.000066   0.000175   0.000019  -0.000001
     3  H    0.000181  -0.000194  -0.000221   0.000075   0.000034   0.000000
     4  C    0.000086  -0.000018  -0.000026  -0.000292  -0.000003   0.000000
     5  H   -0.000006   0.000002   0.000206   0.000012   0.000000   0.000000
     6  H   -0.000006   0.000004  -0.000040   0.000010   0.000000   0.000000
     7  O    0.004457   0.000223  -0.005231   0.002992  -0.000219  -0.000172
     8  O   -0.000025   0.000004   0.000068   0.000088   0.000000   0.000000
     9  C   -0.029371  -0.048919  -0.038873  -0.044657   0.001551   0.006603
    10  C   -0.056097  -0.048113   0.413642   0.009555  -0.023518  -0.000496
    11  C    0.525860  -0.038728   0.001862   0.421441   0.002057  -0.028058
    12  C   -0.032651   0.565121  -0.012890  -0.001819   0.399855   0.006404
    13  C    4.791516   0.532715   0.001505  -0.031310   0.004035   0.407704
    14  C    0.532715   4.804204   0.003614   0.008439  -0.022764  -0.030492
    15  H    0.001505   0.003614   0.543594  -0.000357  -0.003526   0.000090
    16  H   -0.031310   0.008439  -0.000357   0.534365   0.000102  -0.005994
    17  H    0.004035  -0.022764  -0.003526   0.000102   0.533886  -0.000518
    18  H    0.407704  -0.030492   0.000090  -0.005994  -0.000518   0.534308
    19  H   -0.029176   0.408618  -0.000424  -0.000342  -0.003929  -0.003863
    20  C   -0.000019   0.000001   0.000007  -0.000070   0.000000   0.000001
    21  C    0.000008  -0.000001  -0.000003  -0.000061   0.000000   0.000000
    22  C    0.000090  -0.000013  -0.000043  -0.000287   0.000000  -0.000002
    23  C    0.000000   0.000000   0.000000  -0.000026   0.000000   0.000000
    24  C   -0.000056   0.000006   0.000001   0.000965   0.000000  -0.000002
    25  C   -0.000001   0.000000   0.000000   0.000069   0.000000   0.000000
    26  H    0.000000   0.000000   0.000000   0.000000   0.000000   0.000000
    27  H    0.000039   0.000008  -0.000003   0.000810   0.000001  -0.000006
    28  H    0.000000   0.000000   0.000000   0.000000   0.000000   0.000000
    29  H    0.000001   0.000000   0.000000   0.000015   0.000000   0.000000
    30  H    0.000000   0.000000   0.000000   0.000000   0.000000   0.000000
              19         20         21         22         23         24
     1  C    0.000003   0.007926  -0.002300  -0.007380   0.000621   0.002730
     2  H    0.000002  -0.004904   0.001012   0.000991  -0.000111  -0.000358
     3  H    0.000000   0.002144  -0.000072   0.000308  -0.000006  -0.000024
     4  C    0.000000  -0.076420  -0.002545   0.005105  -0.000406  -0.003821
     5  H    0.000000   0.008839  -0.000336  -0.001569   0.000055   0.000228
     6  H    0.000000  -0.020411   0.006905   0.015383  -0.001297  -0.005291
     7  O    0.000021   0.006300  -0.000123  -0.015635  -0.000101  -0.001211
     8  O    0.000000   0.354916  -0.051071  -0.080369   0.002969   0.010313
     9  C    0.000165  -0.000034  -0.000111  -0.001121   0.000008  -0.000018
    10  C    0.007825  -0.000054  -0.000032  -0.000577   0.000001   0.000070
    11  C    0.005409  -0.000296  -0.000078   0.000564   0.000001  -0.000183
    12  C   -0.029843   0.000010   0.000001   0.000042   0.000000  -0.000002
    13  C   -0.029176  -0.000019   0.000008   0.000090   0.000000  -0.000056
    14  C    0.408618   0.000001  -0.000001  -0.000013   0.000000   0.000006
    15  H   -0.000424   0.000007  -0.000003  -0.000043   0.000000   0.000001
    16  H   -0.000342  -0.000070  -0.000061  -0.000287  -0.000026   0.000965
    17  H   -0.003929   0.000000   0.000000   0.000000   0.000000   0.000000
    18  H   -0.003863   0.000001   0.000000  -0.000002   0.000000  -0.000002
    19  H    0.531573   0.000000   0.000000   0.000000   0.000000   0.000000
    20  C    0.000000   4.914070   0.404116   0.255993   0.021683   0.096048
    21  C    0.000000   0.404116   4.948611   0.088002   0.508237  -0.106029
    22  C    0.000000   0.255993   0.088002   5.185360  -0.106921   0.332164
    23  C    0.000000   0.021683   0.508237  -0.106921   4.806891   0.013013
    24  C    0.000000   0.096048  -0.106029   0.332164   0.013013   4.996047
    25  C    0.000000  -0.102599  -0.010974   0.018306   0.506647   0.489271
    26  H    0.000000  -0.065407   0.425361   0.018772  -0.037707  -0.005387
    27  H    0.000000  -0.050151   0.004495   0.423523  -0.000461  -0.029221
    28  H    0.000000   0.012539  -0.036528  -0.003906   0.416600   0.010126
    29  H    0.000000   0.000334   0.003112  -0.018512   0.002741   0.396482
    30  H    0.000000  -0.001214   0.006661   0.009320  -0.031438  -0.032997
              25         26         27         28         29         30
     1  C   -0.000432  -0.000468  -0.009163   0.000002   0.000006   0.000000
     2  H    0.000080   0.000142   0.001852  -0.000001  -0.000004   0.000000
     3  H   -0.000003   0.000002  -0.000815   0.000000   0.000003   0.000000
     4  C    0.000585   0.000361   0.006683   0.000010   0.000001  -0.000005
     5  H   -0.000049  -0.000278  -0.000091   0.000000  -0.000002   0.000000
     6  H    0.001010   0.000426   0.007486  -0.000004  -0.000050   0.000005
     7  O    0.000086   0.000005   0.020634   0.000000  -0.000108   0.000001
     8  O   -0.000618   0.011097  -0.006559  -0.000198  -0.000200   0.000015
     9  C   -0.000010  -0.000007  -0.001390   0.000000  -0.000016   0.000000
    10  C    0.000000  -0.000003  -0.000063   0.000000  -0.000003   0.000000
    11  C   -0.000025   0.000000   0.000444   0.000000   0.000021   0.000000
    12  C    0.000000   0.000000  -0.000044   0.000000   0.000000   0.000000
    13  C   -0.000001   0.000000   0.000039   0.000000   0.000001   0.000000
    14  C    0.000000   0.000000   0.000008   0.000000   0.000000   0.000000
    15  H    0.000000   0.000000  -0.000003   0.000000   0.000000   0.000000
    16  H    0.000069   0.000000   0.000810   0.000000   0.000015   0.000000
    17  H    0.000000   0.000000   0.000001   0.000000   0.000000   0.000000
    18  H    0.000000   0.000000  -0.000006   0.000000   0.000000   0.000000
    19  H    0.000000   0.000000   0.000000   0.000000   0.000000   0.000000
    20  C   -0.102599  -0.065407  -0.050151   0.012539   0.000334  -0.001214
    21  C   -0.010974   0.425361   0.004495  -0.036528   0.003112   0.006661
    22  C    0.018306   0.018772   0.423523  -0.003906  -0.018512   0.009320
    23  C    0.506647  -0.037707  -0.000461   0.416600   0.002741  -0.031438
    24  C    0.489271  -0.005387  -0.029221   0.010126   0.396482  -0.032997
    25  C    4.852654   0.012295   0.007327  -0.038327  -0.022039   0.411510
    26  H    0.012295   0.547191  -0.000250  -0.007875   0.000118  -0.000307
    27  H    0.007327  -0.000250   0.544115   0.000047  -0.004498  -0.000344
    28  H   -0.038327  -0.007875   0.000047   0.542115  -0.000528  -0.004293
    29  H   -0.022039   0.000118  -0.004498  -0.000528   0.535058  -0.003855
    30  H    0.411510  -0.000307  -0.000344  -0.004293  -0.003855   0.534827
 Mulliken charges:
               1
     1  C    0.003651
     2  H    0.086661
     3  H    0.082609
     4  C    0.005233
     5  H    0.101570
     6  H    0.075361
     7  O   -0.241379
     8  O   -0.251588
     9  C    0.260626
    10  C   -0.158796
    11  C   -0.201254
    12  C   -0.148391
    13  C   -0.088404
    14  C   -0.133871
    15  H    0.093846
    16  H    0.106711
    17  H    0.113038
    18  H    0.114464
    19  H    0.113961
    20  C    0.236650
    21  C   -0.186258
    22  C   -0.117589
    23  C   -0.100993
    24  C   -0.162865
    25  C   -0.124763
    26  H    0.101920
    27  H    0.085595
    28  H    0.110220
    29  H    0.111921
    30  H    0.112114
 Sum of Mulliken charges =   0.00000
 Mulliken charges with hydrogens summed into heavy atoms:
               1
     1  C    0.172921
     4  C    0.182164
     7  O   -0.241379
     8  O   -0.251588
     9  C    0.260626
    10  C   -0.064949
    11  C   -0.094543
    12  C   -0.035353
    13  C    0.026059
    14  C   -0.019910
    20  C    0.236650
    21  C   -0.084338
    22  C   -0.031994
    23  C    0.009227
    24  C   -0.050944
    25  C   -0.012649
 Electronic spatial extent (au):  <R**2>=           4735.8429
 Charge=              0.0000 electrons
 Dipole moment (field-independent basis, Debye):
    X=              0.9556    Y=              1.2253    Z=             -0.7071  Tot=              1.7072
 Quadrupole moment (field-independent basis, Debye-Ang):
   XX=            -91.9305   YY=            -83.6758   ZZ=            -95.2218
   XY=              3.1140   XZ=              0.2165   YZ=              0.3648
 Traceless Quadrupole moment (field-independent basis, Debye-Ang):
   XX=             -1.6545   YY=              6.6003   ZZ=             -4.9458
   XY=              3.1140   XZ=              0.2165   YZ=              0.3648
 Octapole moment (field-independent basis, Debye-Ang**2):
  XXX=             20.4732  YYY=             14.9079  ZZZ=             -3.5817  XYY=              8.2645
  XXY=            -10.5835  XXZ=             32.5482  XZZ=            -13.7961  YZZ=              8.2251
  YYZ=            -10.2734  XYZ=              0.0087
 Hexadecapole moment (field-independent basis, Debye-Ang**3):
 XXXX=          -4932.5934 YYYY=          -1063.9787 ZZZZ=           -336.4973 XXXY=             36.8417
 XXXZ=            -25.4393 YYYX=             -8.8709 YYYZ=              4.7108 ZZZX=            -22.8507
 ZZZY=              6.2034 XXYY=           -964.0352 XXZZ=           -932.1267 YYZZ=           -245.4954
 XXYZ=              3.4623 YYXZ=             14.7203 ZZXY=              2.1122
 N-N= 1.011312939981D+03 E-N=-3.634061006539D+03  KE= 6.885849851010D+02
 No NMR shielding tensors so no spin-rotation constants.
 Leave Link  601 at Fri May 17 10:31:45 2024, MaxMem=  6291456000 cpu:        24.8
 (Enter /home/madghost/g09/l607.exe)
 ******************************Gaussian NBO Version 3.1******************************
             N A T U R A L   A T O M I C   O R B I T A L   A N D
          N A T U R A L   B O N D   O R B I T A L   A N A L Y S I S
 ******************************Gaussian NBO Version 3.1******************************

       /RESON  / : Allow strongly delocalized NBO set
       /E2PERT / : Analyze NBO Fock matrix
                   Print threshold set to  0.05
       /PLOT   / : Write information for the orbital plotter
       /ARCHIVE/ : Write the archive file to LFN 47
       /BNDIDX / : Print bond indices based on the NAO density matrix
       /FILE   / : Set to JOB101                                              

 Analyzing the SCF density

 Job title: c2h                                                             

 Storage needed:   1440014 in NPA,   1918463 in NBO,   1440952 in NLMO (6291451200 available)


 NATURAL POPULATIONS:  Natural atomic orbital occupancies 
                                                          
   NAO  Atom  No  lang   Type(AO)    Occupancy      Energy
 ----------------------------------------------------------
     1    C    1  S      Cor( 1S)     1.99924     -10.15874
     2    C    1  S      Val( 2S)     1.03977      -0.31395
     3    C    1  S      Ryd( 3S)     0.00368       1.48083
     4    C    1  S      Ryd( 4S)     0.00009       1.94045
     5    C    1  S      Ryd( 5S)     0.00000      21.40541
     6    C    1  px     Val( 2p)     1.07186      -0.12725
     7    C    1  px     Ryd( 3p)     0.00146       1.26918
     8    C    1  px     Ryd( 4p)     0.00020       1.59820
     9    C    1  py     Val( 2p)     0.79436      -0.09861
    10    C    1  py     Ryd( 3p)     0.00238       1.12504
    11    C    1  py     Ryd( 4p)     0.00026       1.34370
    12    C    1  pz     Val( 2p)     1.18582      -0.13116
    13    C    1  pz     Ryd( 4p)     0.00105       1.17914
    14    C    1  pz     Ryd( 3p)     0.00031       1.15265
    15    C    1  dxy    Ryd( 3d)     0.00106       1.66927
    16    C    1  dxy    Ryd( 4d)     0.00023       3.31477
    17    C    1  dxz    Ryd( 3d)     0.00123       1.56023
    18    C    1  dxz    Ryd( 4d)     0.00020       3.22849
    19    C    1  dyz    Ryd( 3d)     0.00207       1.59404
    20    C    1  dyz    Ryd( 4d)     0.00011       3.16506
    21    C    1  dx2y2  Ryd( 3d)     0.00115       1.90081
    22    C    1  dx2y2  Ryd( 4d)     0.00031       3.69806
    23    C    1  dz2    Ryd( 3d)     0.00140       1.79755
    24    C    1  dz2    Ryd( 4d)     0.00016       3.51779
    25    C    1  f(0)   Ryd( 4f)     0.00007       3.97753
    26    C    1  f(C1)  Ryd( 4f)     0.00007       3.81555
    27    C    1  f(S1)  Ryd( 4f)     0.00006       3.84539
    28    C    1  f(C2)  Ryd( 4f)     0.00004       3.92002
    29    C    1  f(S2)  Ryd( 4f)     0.00002       3.88011
    30    C    1  f(C3)  Ryd( 4f)     0.00008       4.06412
    31    C    1  f(S3)  Ryd( 4f)     0.00004       3.94151

    32    H    2  S      Val( 1S)     0.81046      -0.01559
    33    H    2  S      Ryd( 2S)     0.00164       0.57277
    34    H    2  S      Ryd( 3S)     0.00018       2.23691
    35    H    2  px     Ryd( 2p)     0.00021       2.72837
    36    H    2  px     Ryd( 3p)     0.00006       3.41395
    37    H    2  py     Ryd( 2p)     0.00016       2.77105
    38    H    2  py     Ryd( 3p)     0.00005       3.33668
    39    H    2  pz     Ryd( 3p)     0.00013       3.66190
    40    H    2  pz     Ryd( 2p)     0.00015       3.60233
    41    H    2  dxy    Ryd( 3d)     0.00001       3.71451
    42    H    2  dxz    Ryd( 3d)     0.00004       4.13418
    43    H    2  dyz    Ryd( 3d)     0.00002       4.16426
    44    H    2  dx2y2  Ryd( 3d)     0.00004       3.72082
    45    H    2  dz2    Ryd( 3d)     0.00002       4.51515

    46    H    3  S      Val( 1S)     0.81952      -0.02625
    47    H    3  S      Ryd( 2S)     0.00161       0.54157
    48    H    3  S      Ryd( 3S)     0.00015       2.25381
    49    H    3  px     Ryd( 2p)     0.00022       3.01923
    50    H    3  px     Ryd( 3p)     0.00009       3.46018
    51    H    3  py     Ryd( 2p)     0.00014       3.04182
    52    H    3  py     Ryd( 3p)     0.00008       3.46987
    53    H    3  pz     Ryd( 2p)     0.00014       2.99834
    54    H    3  pz     Ryd( 3p)     0.00008       3.44585
    55    H    3  dxy    Ryd( 3d)     0.00002       4.05373
    56    H    3  dxz    Ryd( 3d)     0.00002       4.08900
    57    H    3  dyz    Ryd( 3d)     0.00002       4.04358
    58    H    3  dx2y2  Ryd( 3d)     0.00004       3.99666
    59    H    3  dz2    Ryd( 3d)     0.00004       4.01825

    60    C    4  S      Cor( 1S)     1.99921     -10.15826
    61    C    4  S      Val( 2S)     1.03068      -0.30672
    62    C    4  S      Ryd( 3S)     0.00259       1.39597
    63    C    4  S      Ryd( 4S)     0.00032       2.09218
    64    C    4  S      Ryd( 5S)     0.00000      21.80059
    65    C    4  px     Val( 2p)     0.92290      -0.10574
    66    C    4  px     Ryd( 3p)     0.00188       1.04960
    67    C    4  px     Ryd( 4p)     0.00016       1.44121
    68    C    4  py     Val( 2p)     1.14161      -0.13231
    69    C    4  py     Ryd( 3p)     0.00236       1.23528
    70    C    4  py     Ryd( 4p)     0.00044       1.83987
    71    C    4  pz     Val( 2p)     0.98613      -0.11299
    72    C    4  pz     Ryd( 3p)     0.00256       1.09792
    73    C    4  pz     Ryd( 4p)     0.00024       1.24836
    74    C    4  dxy    Ryd( 3d)     0.00063       1.60476
    75    C    4  dxy    Ryd( 4d)     0.00018       3.19353
    76    C    4  dxz    Ryd( 3d)     0.00057       1.82911
    77    C    4  dxz    Ryd( 4d)     0.00036       3.48596
    78    C    4  dyz    Ryd( 3d)     0.00116       1.64094
    79    C    4  dyz    Ryd( 4d)     0.00019       3.21795
    80    C    4  dx2y2  Ryd( 3d)     0.00291       1.80000
    81    C    4  dx2y2  Ryd( 4d)     0.00014       3.54439
    82    C    4  dz2    Ryd( 3d)     0.00171       1.77610
    83    C    4  dz2    Ryd( 4d)     0.00018       3.38397
    84    C    4  f(0)   Ryd( 4f)     0.00004       3.85640
    85    C    4  f(C1)  Ryd( 4f)     0.00004       4.04931
    86    C    4  f(S1)  Ryd( 4f)     0.00006       3.96694
    87    C    4  f(C2)  Ryd( 4f)     0.00004       3.89905
    88    C    4  f(S2)  Ryd( 4f)     0.00006       3.80907
    89    C    4  f(C3)  Ryd( 4f)     0.00006       3.85759
    90    C    4  f(S3)  Ryd( 4f)     0.00005       3.97741

    91    H    5  S      Val( 1S)     0.80040      -0.01301
    92    H    5  S      Ryd( 2S)     0.00046       1.17548
    93    H    5  S      Ryd( 3S)     0.00013       1.44917
    94    H    5  px     Ryd( 3p)     0.00001       3.92062
    95    H    5  px     Ryd( 2p)     0.00023       2.11408
    96    H    5  py     Ryd( 3p)     0.00066       4.22789
    97    H    5  py     Ryd( 2p)     0.00002       3.26747
    98    H    5  pz     Ryd( 3p)     0.00001       3.88245
    99    H    5  pz     Ryd( 2p)     0.00018       1.95527
   100    H    5  dxy    Ryd( 3d)     0.00004       4.13440
   101    H    5  dxz    Ryd( 3d)     0.00002       3.64775
   102    H    5  dyz    Ryd( 3d)     0.00003       4.11509
   103    H    5  dx2y2  Ryd( 3d)     0.00007       4.41381
   104    H    5  dz2    Ryd( 3d)     0.00005       3.85830

   105    H    6  S      Val( 1S)     0.80751      -0.01516
   106    H    6  S      Ryd( 2S)     0.00157       0.58511
   107    H    6  S      Ryd( 3S)     0.00023       2.25202
   108    H    6  px     Ryd( 2p)     0.00018       2.90486
   109    H    6  px     Ryd( 3p)     0.00006       3.22591
   110    H    6  py     Ryd( 2p)     0.00016       2.82992
   111    H    6  py     Ryd( 3p)     0.00008       3.33711
   112    H    6  pz     Ryd( 3p)     0.00018       3.73188
   113    H    6  pz     Ryd( 2p)     0.00013       3.56718
   114    H    6  dxy    Ryd( 3d)     0.00002       3.69740
   115    H    6  dxz    Ryd( 3d)     0.00004       4.14284
   116    H    6  dyz    Ryd( 3d)     0.00002       4.20404
   117    H    6  dx2y2  Ryd( 3d)     0.00003       3.78333
   118    H    6  dz2    Ryd( 3d)     0.00002       4.43385

   119    O    7  S      Cor( 1S)     1.99971     -19.02349
   120    O    7  S      Val( 2S)     1.57721      -0.89610
   121    O    7  S      Ryd( 3S)     0.00088       1.46294
   122    O    7  S      Ryd( 4S)     0.00014       4.73417
   123    O    7  S      Ryd( 5S)     0.00000      43.36845
   124    O    7  px     Val( 2p)     1.57247      -0.32811
   125    O    7  px     Ryd( 3p)     0.00262       1.01637
   126    O    7  px     Ryd( 4p)     0.00027       3.85791
   127    O    7  py     Val( 2p)     1.46747      -0.31267
   128    O    7  py     Ryd( 3p)     0.00196       0.99825
   129    O    7  py     Ryd( 4p)     0.00024       4.09798
   130    O    7  pz     Val( 2p)     1.81611      -0.33542
   131    O    7  pz     Ryd( 3p)     0.00363       0.71362
   132    O    7  pz     Ryd( 4p)     0.00022       3.09962
   133    O    7  dxy    Ryd( 3d)     0.00200       2.07375
   134    O    7  dxy    Ryd( 4d)     0.00009       6.67137
   135    O    7  dxz    Ryd( 3d)     0.00243       1.82215
   136    O    7  dxz    Ryd( 4d)     0.00005       6.50096
   137    O    7  dyz    Ryd( 3d)     0.00116       1.82393
   138    O    7  dyz    Ryd( 4d)     0.00007       6.50920
[...]
   20      25      29    -0.0032610      -0.0300057
   20      25      30     0.0039612       0.1958631
   20      25      31    -0.0030643      -0.0660840
   20      25      33    -0.0033162      -0.0150852
   20      25      35    -0.0655146      -0.0439700
   20      25      36    -0.0035752      -0.0163711
   20      25      57     0.0120733       0.0397503
   20      26      25    -0.0024353      -0.1229701
   20      26      29     0.0070567       0.0311232
   20      27      24    -0.0027423      -0.1130651
   20      27      31     0.0063685       0.0547273
   20      28      24     0.0024884       0.0551229
   20      28      33    -0.0033162      -0.0052757
   20      29      25     0.0024695       0.0630872
   20      29      36    -0.0035752      -0.0027200
   20      30      27     0.0026372       0.0609072
   20      30      30     0.0027076       0.0550643
   21      22      24     0.0037427       0.2188590
   21      22      25     0.0041697       0.1487585
   21      22      26     0.0730715       0.1140330
   21      22      28    -0.0387868      -0.0732286
   21      22      29    -0.0037225      -0.0564323
   21      22      31    -0.0033587      -0.0747996
   21      22      35    -0.0516107      -0.0852249
   21      22      37    -0.0032166      -0.0810108
   21      22      56    -0.0026290      -0.3536587
   21      22      57     0.0186468       0.0610831
   21      23      24     0.0039251       0.2758313
   21      23      26    -0.0680618      -0.3720824
   21      23      27     0.9816359       0.8088823
   21      23      28     0.7737893       0.4050892
   21      23      29     0.0061594       0.1279028
   21      23      32     0.0042583       0.3131783
   21      23      33     0.0059942       0.1816337
   21      23      35    -0.0516107      -0.3531393
   21      23      37    -0.0032166      -0.4143748
   21      24      25     0.0041697       0.1215091
   21      24      26     0.0730715       0.0719489
   21      24      28    -0.0668019      -0.0413428
   21      24      31    -0.0033587      -0.0740290
   21      24      32     0.0041971       0.2296801
   21      24      33    -0.0031087      -0.0537526
   21      24      35    -0.0516107      -0.0382703
   21      24      37    -0.0032166      -0.0474177
   21      25      26    -0.0536433      -0.0788071
   21      25      27     0.0039071       0.2192451
   21      25      28     0.0678433       0.1150148
   21      25      29    -0.0032610      -0.0646271
   21      25      31    -0.0030643      -0.0633578
   21      25      32     0.0042583       0.2129179
   21      25      33     0.0057612       0.3042400
   21      25      35    -0.0516107      -0.0692758
   21      25      37    -0.0032166      -0.0629269
   21      25      57    -0.0120733      -0.0575191
   21      26      25    -0.0024353      -0.4658860
   21      26      29     0.7656652       0.8107711
   21      26      32    -0.0028424      -0.5244770
   21      27      24    -0.0027423      -0.0136931
   21      27      31     0.0033587       0.0055610
   21      28      24    -0.0024884      -0.1176433
   21      28      33     0.0059942       0.0415380
   21      29      25     0.0024695       0.0478886
   21      29      32     0.0028544       0.0705840
   21      30      27     0.0026372       0.0669038
   21      30      37    -0.0032166      -0.0005796
   22      23      24     0.0037427       0.1470507
   22      23      26    -0.0680618      -0.0436725
   22      23      28    -0.0387868      -0.0398480
   22      23      29    -0.0037225      -0.0445753
   22      23      34     0.0040139       0.2238656
   22      23      35     0.0636497       0.0777248
   22      23      36    -0.0031806      -0.0588521
   22      23      37    -0.0034027      -0.0482917
   22      24      25     0.0043795       0.2599056
   22      24      26     0.1609711       0.4180308
   22      24      28     0.0387868       0.3311235
   22      24      30     0.9782831       0.8045073
   22      24      31     0.0052777       0.2477927
   22      24      34     0.0040139       0.3028349
   22      24      35     0.0636497       0.4336318
   22      24      36     0.0060244       0.1891029
   22      24      37    -0.0034027      -0.4101169
   22      25      26    -0.0536433      -0.0701377
   22      25      28    -0.0387868      -0.0846774
   22      25      29    -0.0032610      -0.0607497
   22      25      30     0.0039612       0.2186618
   22      25      31    -0.0030643      -0.0692020
   22      25      34     0.0040139       0.2143440
   22      25      35     0.0636497       0.1184035
   22      25      36     0.0058531       0.3169154
   22      25      37    -0.0034027      -0.0655416
   22      25      57    -0.0120733      -0.0600017
   22      26      25    -0.0024353      -0.0079348
   22      26      29    -0.0037225      -0.0012269
   22      27      24    -0.0027423      -0.4544901
   22      27      31     0.7583909       0.8171581
   22      27      34    -0.0026562      -0.5099498
   22      28      24     0.0024884       0.0447854
   22      28      34     0.0027839       0.0676034
   22      29      25    -0.0024695      -0.1208075
   22      29      36     0.0060244       0.0498158
   22      30      30     0.0027076       0.0710866
   22      30      37    -0.0034027      -0.0017647
   23      24      26    -0.0680618      -0.0877766
   23      24      28    -0.0668019      -0.0789731
   23      24      32     0.0041971       0.2408825
   23      24      33    -0.0031087      -0.0726708
   23      24      34     0.0040531       0.2387878
   23      24      35     0.1486944       0.1156417
   23      24      36    -0.0031806      -0.0723563
   23      24      37     0.0058382       0.2848544
   23      25      26     0.0536433       0.3281432
   23      25      27     0.0039071       0.3224144
   23      25      28     0.0678433       0.4298909
   23      25      29    -0.0032610      -0.4156681
   23      25      32     0.9901700       0.8063676
   23      25      33     0.0057612       0.1546749
   23      25      34     0.0040531       0.3336813
   23      25      35     0.1486944       0.4197550
   23      25      36    -0.0031806      -0.4212892
   23      25      37     0.0058382       0.1411985
   23      26      29     0.0061594       0.0216182
   23      26      32    -0.0028424      -0.1158531
   23      27      24    -0.0027423      -0.0007762
   23      27      34     0.0026562       0.0254688
   23      28      24    -0.0024884      -0.5631532
   23      28      33     0.7750385       0.8105124
   23      28      34    -0.0027839      -0.5731542
   23      29      32     0.0028544       0.0676452
   23      29      36    -0.0031806      -0.0045637
   23      30      27    -0.0026372      -0.1163159
   23      30      37     0.0058382       0.0146487
   24      25      26    -0.0536433      -0.3513322
   24      25      28    -0.0668019      -0.3720969
   24      25      30     0.0039612       0.3165427
   24      25      31    -0.0030643      -0.3953270
   24      25      32     0.0041971       0.3422483
   24      25      33    -0.0031087      -0.4107277
   24      25      34     0.9898654       0.8070789
   24      25      35     0.7634501       0.4077052
   24      25      36     0.0058531       0.1583922
   24      25      37     0.0062189       0.1524187
   24      26      25     0.0024353       0.0049478
   24      26      32     0.0028424       0.0217362
   24      27      31     0.0052777       0.1031130
   24      27      34    -0.0026562      -0.1187882
   24      28      33    -0.0031087      -0.0034764
   24      28      34     0.0027839       0.0670883
   24      29      25    -0.0024695      -0.5452997
   24      29      32    -0.0028544      -0.5704408
   24      29      36     0.7764268       0.8101082
   24      30      30    -0.0027076      -0.1169527
   24      30      37     0.0062189       0.0241131
   25      26      29     0.0032610       0.0014944
   25      26      32     0.0028424       0.0090638
   25      27      31     0.0030643       0.0062281
   25      27      34     0.0026562       0.0140002
   25      28      33     0.0057612       0.0202432
   25      28      34    -0.0027839      -0.1126617
   25      29      32    -0.0028544      -0.1141523
   25      29      36     0.0058531       0.0215114
   25      30      27    -0.0026372      -0.5818405
   25      30      30    -0.0027076      -0.5857568
   25      30      37     0.7746036       0.8108911
   26      29      25    -0.0024353      -0.0016471
   26      29      32    -0.0028424      -0.0006873
   27      28      24    -0.0024884      -0.0015791
   27      28      34    -0.0026562      -0.0004618


 Atom-Atom Net Linear NLMO/NPA Bond Orders:                                    

     Atom    1       2       3       4       5       6       7       8       9
     ---- ------  ------  ------  ------  ------  ------  ------  ------  ------
   1.  C  0.0000  0.7756  0.7846  0.9986  0.0049 -0.0037  0.6834 -0.0163  0.0220
   2.  H  0.7756  0.0000 -0.0058 -0.0011 -0.0005 -0.0082 -0.0176  0.0002 -0.0142
   3.  H  0.7846 -0.0058  0.0000  0.0069  0.0026  0.0017 -0.0180  0.0068 -0.0155
   4.  C  0.9986 -0.0011  0.0069  0.0000  0.7787  0.7769 -0.0159  0.6895  0.0034
   5.  H  0.0049 -0.0005  0.0026  0.7787  0.0000  0.0000  0.0029 -0.0135  0.0008
   6.  H -0.0037 -0.0082  0.0017  0.7769  0.0000  0.0000  0.0003 -0.0145  0.0009
   7.  O  0.6834 -0.0176 -0.0180 -0.0159  0.0029  0.0003  0.0000  0.0038  0.7411
   8.  O -0.0163  0.0002  0.0068  0.6895 -0.0135 -0.0145  0.0038  0.0000 -0.0029
   9.  C  0.0220 -0.0142 -0.0155  0.0034  0.0008  0.0009  0.7411 -0.0029  0.0000
  10.  C -0.0240  0.0041  0.0139 -0.0056  0.0004  0.0018 -0.0409  0.0002  1.5538
  11.  C -0.0045 -0.0080  0.0105 -0.0007  0.0009  0.0000 -0.0259 -0.0001  1.2328
  12.  C  0.0001  0.0002  0.0004 -0.0019  0.0004 -0.0003  0.0059 -0.0001  0.0316
  13.  C -0.0084  0.0000  0.0011 -0.0027 -0.0006 -0.0001  0.0087  0.0000  0.0241
  14.  C  0.0094  0.0113 -0.0130  0.0003 -0.0004 -0.0006  0.0214  0.0003 -0.0455
  15.  H -0.0020 -0.0012  0.0013  0.0018 -0.0003  0.0004  0.0008 -0.0004  0.0025
  16.  H  0.0008 -0.0003  0.0002  0.0007  0.0004  0.0002 -0.0002 -0.0001  0.0030
  17.  H  0.0013  0.0000  0.0005  0.0003 -0.0003 -0.0001 -0.0032  0.0001  0.0010
  18.  H -0.0018 -0.0002  0.0001  0.0001 -0.0003 -0.0001  0.0008 -0.0001  0.0012
  19.  H  0.0001  0.0003 -0.0002 -0.0002  0.0000  0.0000  0.0057  0.0001  0.0071
  20.  C -0.0115 -0.0016  0.0015  0.0215  0.0028 -0.0077  0.0013  0.7361  0.0034
  21.  C  0.0125  0.0008 -0.0026 -0.0066 -0.0027 -0.0021 -0.0011 -0.0268  0.0012
  22.  C  0.0098 -0.0008 -0.0035 -0.0243 -0.0006 -0.0008 -0.0003 -0.0376  0.0019
  23.  C  0.0002 -0.0004 -0.0009 -0.0063  0.0002 -0.0004 -0.0003  0.0094 -0.0003
  24.  C  0.0009 -0.0002 -0.0005 -0.0005 -0.0012 -0.0018 -0.0003  0.0059  0.0001
  25.  C -0.0100  0.0002  0.0011  0.0122  0.0053  0.0055 -0.0004  0.0218  0.0000
  26.  H  0.0006  0.0003  0.0001  0.0018  0.0007  0.0000  0.0000 -0.0004  0.0002
  27.  H -0.0013 -0.0005 -0.0007 -0.0047  0.0010 -0.0012  0.0014  0.0015  0.0001
  28.  H -0.0003  0.0001  0.0003 -0.0021  0.0000 -0.0002  0.0000 -0.0044  0.0000
  29.  H -0.0003 -0.0003  0.0001  0.0011  0.0004 -0.0004  0.0002 -0.0006 -0.0002
  30.  H -0.0001 -0.0002  0.0001  0.0000  0.0001 -0.0004  0.0002  0.0050 -0.0002

     Atom   10      11      12      13      14      15      16      17      18
     ---- ------  ------  ------  ------  ------  ------  ------  ------  ------
   1.  C -0.0240 -0.0045  0.0001 -0.0084  0.0094 -0.0020  0.0008  0.0013 -0.0018
   2.  H  0.0041 -0.0080  0.0002  0.0000  0.0113 -0.0012 -0.0003  0.0000 -0.0002
   3.  H  0.0139  0.0105  0.0004  0.0011 -0.0130  0.0013  0.0002  0.0005  0.0001
   4.  C -0.0056 -0.0007 -0.0019 -0.0027  0.0003  0.0018  0.0007  0.0003  0.0001
   5.  H  0.0004  0.0009  0.0004 -0.0006 -0.0004 -0.0003  0.0004 -0.0003 -0.0003
   6.  H  0.0018  0.0000 -0.0003 -0.0001 -0.0006  0.0004  0.0002 -0.0001 -0.0001
   7.  O -0.0409 -0.0259  0.0059  0.0087  0.0214  0.0008 -0.0002 -0.0032  0.0008
   8.  O  0.0002 -0.0001 -0.0001  0.0000  0.0003 -0.0004 -0.0001  0.0001 -0.0001
   9.  C  1.5538  1.2328  0.0316  0.0241 -0.0455  0.0025  0.0030  0.0010  0.0012
  10.  C  0.0000 -0.0077  1.2463 -0.0444 -0.0380  0.7624  0.0034  0.0024  0.0069
  11.  C -0.0077  0.0000 -0.0488  1.6551 -0.0450  0.0085  0.7567  0.0073  0.0016
  12.  C  1.2463 -0.0488  0.0000  0.0228  1.6507  0.0022  0.0068  0.7679  0.0014
  13.  C -0.0444  1.6551  0.0228  0.0000  1.2668  0.0062  0.0027  0.0011  0.7669
  14.  C -0.0380 -0.0450  1.6507  1.2668  0.0000  0.0084  0.0087  0.0020  0.0009
  15.  H  0.7624  0.0085  0.0022  0.0062  0.0084  0.0000  0.0007 -0.0027 -0.0056
  16.  H  0.0034  0.7567  0.0068  0.0027  0.0087  0.0007  0.0000 -0.0056 -0.0019
  17.  H  0.0024  0.0073  0.7679  0.0011  0.0020 -0.0027 -0.0056  0.0000 -0.0028
  18.  H  0.0069  0.0016  0.0014  0.7669  0.0009 -0.0056 -0.0019 -0.0028  0.0000
  19.  H  0.0010  0.0011  0.0016  0.0013  0.7666 -0.0011 -0.0009 -0.0032 -0.0034
  20.  C  0.0000 -0.0002 -0.0003 -0.0006 -0.0002  0.0005  0.0001 -0.0003  0.0000
  21.  C -0.0001  0.0002  0.0001 -0.0001 -0.0002  0.0004  0.0002 -0.0002  0.0000
  22.  C -0.0009  0.0007  0.0002 -0.0003  0.0001  0.0012 -0.0002 -0.0005 -0.0001
  23.  C  0.0000  0.0001  0.0000  0.0002  0.0000  0.0001  0.0000  0.0000  0.0000
  24.  C -0.0004  0.0004 -0.0004 -0.0003 -0.0001  0.0004  0.0001 -0.0003 -0.0001
  25.  C -0.0002  0.0001  0.0000 -0.0001  0.0000  0.0002  0.0001 -0.0001  0.0000
  26.  H  0.0000  0.0000  0.0000 -0.0001  0.0000  0.0000  0.0000  0.0000  0.0000
  27.  H -0.0008 -0.0007  0.0006 -0.0003  0.0001  0.0008 -0.0003 -0.0004  0.0000
  28.  H  0.0000  0.0000  0.0000  0.0000  0.0000  0.0000  0.0000  0.0000  0.0000
  29.  H  0.0000  0.0000  0.0000  0.0000  0.0000  0.0000 -0.0001  0.0000  0.0000
  30.  H  0.0000  0.0000  0.0000  0.0000  0.0000  0.0000  0.0000  0.0000  0.0000

     Atom   19      20      21      22      23      24      25      26      27
     ---- ------  ------  ------  ------  ------  ------  ------  ------  ------
   1.  C  0.0001 -0.0115  0.0125  0.0098  0.0002  0.0009 -0.0100  0.0006 -0.0013
   2.  H  0.0003 -0.0016  0.0008 -0.0008 -0.0004 -0.0002  0.0002  0.0003 -0.0005
   3.  H -0.0002  0.0015 -0.0026 -0.0035 -0.0009 -0.0005  0.0011  0.0001 -0.0007
   4.  C -0.0002  0.0215 -0.0066 -0.0243 -0.0063 -0.0005  0.0122  0.0018 -0.0047
   5.  H  0.0000  0.0028 -0.0027 -0.0006  0.0002 -0.0012  0.0053  0.0007  0.0010
   6.  H  0.0000 -0.0077 -0.0021 -0.0008 -0.0004 -0.0018  0.0055  0.0000 -0.0012
   7.  O  0.0057  0.0013 -0.0011 -0.0003 -0.0003 -0.0003 -0.0004  0.0000  0.0014
   8.  O  0.0001  0.7361 -0.0268 -0.0376  0.0094  0.0059  0.0218 -0.0004  0.0015
   9.  C  0.0071  0.0034  0.0012  0.0019 -0.0003  0.0001  0.0000  0.0002  0.0001
  10.  C  0.0010  0.0000 -0.0001 -0.0009  0.0000 -0.0004 -0.0002  0.0000 -0.0008
  11.  C  0.0011 -0.0002  0.0002  0.0007  0.0001  0.0004  0.0001  0.0000 -0.0007
  12.  C  0.0016 -0.0003  0.0001  0.0002  0.0000 -0.0004  0.0000  0.0000  0.0006
  13.  C  0.0013 -0.0006 -0.0001 -0.0003  0.0002 -0.0003 -0.0001 -0.0001 -0.0003
  14.  C  0.7666 -0.0002 -0.0002  0.0001  0.0000 -0.0001  0.0000  0.0000  0.0001
  15.  H -0.0011  0.0005  0.0004  0.0012  0.0001  0.0004  0.0002  0.0000  0.0008
  16.  H -0.0009  0.0001  0.0002 -0.0002  0.0000  0.0001  0.0001  0.0000 -0.0003
  17.  H -0.0032 -0.0003 -0.0002 -0.0005  0.0000 -0.0003 -0.0001  0.0000 -0.0004
  18.  H -0.0034  0.0000  0.0000 -0.0001  0.0000 -0.0001  0.0000  0.0000  0.0000
  19.  H  0.0000 -0.0001 -0.0001  0.0000  0.0000  0.0000  0.0000  0.0000  0.0000
  20.  C -0.0001  0.0000  1.2391  1.5579  0.0224  0.0366 -0.0452  0.0032  0.0019
  21.  C -0.0001  1.2391  0.0000 -0.0044  1.6512 -0.0467 -0.0467  0.7592  0.0030
  22.  C  0.0000  1.5579 -0.0044  0.0000 -0.0442  1.2548 -0.0380 -0.0043  0.7502
  23.  C  0.0000  0.0224  1.6512 -0.0442  0.0000  0.0213  1.2712  0.0028  0.0007
  24.  C  0.0000  0.0366 -0.0467  1.2548  0.0213  0.0000  1.6448  0.0069  0.0015
  25.  C  0.0000 -0.0452 -0.0467 -0.0380  1.2712  1.6448  0.0000  0.0089  0.0083
  26.  H  0.0000  0.0032  0.7592 -0.0043  0.0028  0.0069  0.0089  0.0000 -0.0005
  27.  H  0.0000  0.0019  0.0030  0.7502  0.0007  0.0015  0.0083 -0.0005  0.0000
  28.  H  0.0000  0.0012  0.0017  0.0070  0.7683  0.0015  0.0010 -0.0017 -0.0056
  29.  H  0.0000  0.0010  0.0073  0.0021  0.0011  0.7695  0.0010 -0.0060 -0.0026
  30.  H  0.0000  0.0065  0.0010  0.0011  0.0024  0.0026  0.7679  0.0012  0.0014

     Atom   28      29      30
     ---- ------  ------  ------
   1.  C -0.0003 -0.0003 -0.0001
   2.  H  0.0001 -0.0003 -0.0002
   3.  H  0.0003  0.0001  0.0001
   4.  C -0.0021  0.0011  0.0000
   5.  H  0.0000  0.0004  0.0001
   6.  H -0.0002 -0.0004 -0.0004
   7.  O  0.0000  0.0002  0.0002
   8.  O -0.0044 -0.0006  0.0050
   9.  C  0.0000 -0.0002 -0.0002
  10.  C  0.0000  0.0000  0.0000
  11.  C  0.0000  0.0000  0.0000
  12.  C  0.0000  0.0000  0.0000
  13.  C  0.0000  0.0000  0.0000
  14.  C  0.0000  0.0000  0.0000
  15.  H  0.0000  0.0000  0.0000
  16.  H  0.0000 -0.0001  0.0000
  17.  H  0.0000  0.0000  0.0000
  18.  H  0.0000  0.0000  0.0000
  19.  H  0.0000  0.0000  0.0000
  20.  C  0.0012  0.0010  0.0065
  21.  C  0.0017  0.0073  0.0010
  22.  C  0.0070  0.0021  0.0011
  23.  C  0.7683  0.0011  0.0024
  24.  C  0.0015  0.7695  0.0026
  25.  C  0.0010  0.0010  0.7679
  26.  H -0.0017 -0.0060  0.0012
  27.  H -0.0056 -0.0026  0.0014
  28.  H  0.0000 -0.0027 -0.0033
  29.  H -0.0027  0.0000 -0.0032
  30.  H -0.0033 -0.0032  0.0000


 Linear NLMO/NPA Bond Orders, Totals by Atom:                                  

     Atom    1
     ---- ------
   1.  C  3.2206
   2.  H  0.7321
   3.  H  0.7732
   4.  C  3.2214
   5.  H  0.7819
   6.  H  0.7450
   7.  O  1.3535
   8.  O  1.3629
   9.  C  3.5532
  10.  C  3.4336
  11.  C  3.5342
  12.  C  3.6872
  13.  C  3.6992
  14.  C  3.6039
  15.  H  0.7853
  16.  H  0.7751
  17.  H  0.7643
  18.  H  0.7637
  19.  H  0.7757
  20.  C  3.5693
  21.  C  3.5376
  22.  C  3.4262
  23.  C  3.6988
  24.  C  3.6946
  25.  C  3.6089
  26.  H  0.7730
  27.  H  0.7529
  28.  H  0.7606
  29.  H  0.7676
  30.  H  0.7822
 Leave Link  607 at Fri May 17 10:32:17 2024, MaxMem=  6291456000 cpu:       770.0
 Internal input file was deleted!
 Error termination via Lnk1e at Fri May 17 10:32:17 2024.
May-2024\0\\#P PB
 E1PBE/GEN pop=nboread\\c2h\\0,1\C,0,0.708033,1.874968,-0.076109\H,0,1.
 124183,1.946236,0.935979\H,0,1.256171,2.569674,-0.727486\C,0,-0.743725
 ,2.277256,-0.048596\H,0,-0.787967,3.351041,0.155412\H,0,-1.214075,2.10
 0391,-1.019938\O,0,0.81338,0.558202,-0.559229\O,0,-1.464045,1.654801,0
 .990795\C,0,2.034448,-0.028745,-0.571895\C,0,3.21576,0.617899,-0.22709
 7\C,0,2.062717,-1.364114,-0.968001\C,0,4.416865,-0.07951,-0.283956\C,0
 ,3.264594,-2.042264,-1.020251\C,0,4.452161,-1.404843,-0.678382\H,0,3.2
 14566,1.65426,0.08267\H,0,1.128079,-1.848935,-1.223195\H,0,5.334287,0.
 430909,-0.013488\H,0,3.275271,-3.081675,-1.327926\H,0,5.392957,-1.9399
 18,-0.718975\C,0,-2.265586,0.58771,0.734253\C,0,-3.165958,0.263125,1.7
 45885\C,0,-2.230304,-0.172921,-0.428734\C,0,-4.026378,-0.807729,1.5919
 97\C,0,-3.107822,-1.239768,-0.572078\C,0,-4.008264,-1.565365,0.427945\
 H,0,-3.174095,0.868215,2.644508\H,0,-1.504368,0.031865,-1.202406\H,0,-
 4.722201,-1.048933,2.38761\H,0,-3.071893,-1.828873,-1.481713\H,0,-4.68
 4843,-2.402455,0.306539\\Version=EM64L-G09RevD.01\State=1-A\HF=-691.79
 40229\RMSD=2.648e-09\Dipole=0.357524,0.5106576,-0.2500621\Quadrupole=-
 0.8175083,4.2229477,-3.4054394,2.8207587,0.2347286,1.3984212\PG=C01 [X
 (C14H14O2)]\\@


 LIFE IS SO UNCERTAIN - EAT DESSERT FIRST.
 Job cpu time:       0 days  2 hours  4 minutes 52.3 seconds.
 File lengths (MBytes):  RWF=    259 Int=      0 D2E=      0 Chk=     18 Scr=      1
 Normal termination of Gaussian 09 at Fri May 17 10:32:09 2024.
