 Entering Gaussian System, Link 0=/home/madghost/g09/g09
 Input=job1.gjf
 Output=job1.log
 Initial command:
 /home/madghost/g09/l1.exe "/scr/natalya/job1/Gau-503825.inp" -scrdir="/scr/natalya/job1/"
 Entering Link 1 = /home/madghost/g09/l1.exe PID=    503827.
  
 Copyright (c) 1988,1990,1992,1993,1995,1998,2003,2009,2013,
            Gaussian, Inc.  All Rights Reserved.
  
 This is part of the Gaussian(R) 09 program.  It is based on
 the Gaussian(R) 03 system (copyright 2003, Gaussian, Inc.),
 the Gaussian(R) 98 system (copyright 1998, Gaussian, Inc.),
 the Gaussian(R) 94 system (copyright 1995, Gaussian, Inc.),
 the Gaussian 92(TM) system (copyright 1992, Gaussian, Inc.),
 the Gaussian 90(TM) system (copyright 1990, Gaussian, Inc.),
 the Gaussian 88(TM) system (copyright 1988, Gaussian, Inc.),
 the Gaussian 86(TM) system (copyright 1986, Carnegie Mellon
 University), and the Gaussian 82(TM) system (copyright 1983,
 Carnegie Mellon University). Gaussian is a federally registered
 trademark of Gaussian, Inc.
  
 This software contains proprietary and confidential information,
 including trade secrets, belonging to Gaussian, Inc.
  
 This software is provided under written license and may be
 used, copied, transmitted, or stored only in accord with that
 written license.
  
 The following legend is applicable only to US Government
 contracts under FAR:
  
                    RESTRICTED RIGHTS LEGEND
  
 Use, reproduction and disclosure by the US Government is
 subject to restrictions as set forth in subparagraphs (a)
 and (c) of the Commercial Computer Software - Restricted
 Rights clause in FAR 52.227-19.
  
 Gaussian, Inc.
 340 Quinnipiac St., Bldg. 40, Wallingford CT 06492
  
  
 ---------------------------------------------------------------
 Warning -- This program may not be used in any manner that
 competes with the business of Gaussian, Inc. or will provide
 assistance to any competitor of Gaussian, Inc.  The licensee
 of this program is prohibited from giving any competitor of
 Gaussian, Inc. access to this program.  By using this program,
 the user acknowledges that Gaussian, Inc. is engaged in the
 business of creating and licensing software in the field of
 computational chemistry and represents and warrants to the
 licensee that it is not a competitor of Gaussian, Inc. and that
 it will not use this program in any manner prohibited above.
 ---------------------------------------------------------------
  

 Cite this work as:
 Gaussian 09, Revision D.01,
 M. J. Frisch, G. W. Trucks, H. B. Schlegel, G. E. Scuseria, 
 M. A. Robb, J. R. Cheeseman, G. Scalmani, V. Barone, B. Mennucci, 
 G. A. Petersson, H. Nakatsuji, M. Caricato, X. Li, H. P. Hratchian, 
 A. F. Izmaylov, J. Bloino, G. Zheng, J. L. Sonnenberg, M. Hada, 
 M. Ehara, K. Toyota, R. Fukuda, J. Hasegawa, M. Ishida, T. Nakajima, 
 Y. Honda, O. Kitao, H. Nakai, T. Vreven, J. A. Montgomery, Jr., 
 J. E. Peralta, F. Ogliaro, M. Bearpark, J. J. Heyd, E. Brothers, 
 K. N. Kudin, V. N. Staroverov, T. Keith, R. Kobayashi, J. Normand, 
 K. Raghavachari, A. Rendell, J. C. Burant, S. S. Iyengar, J. Tomasi, 
 M. Cossi, N. Rega, J. M. Millam, M. Klene, J. E. Knox, J. B. Cross, 
 V. Bakken, C. Adamo, J. Jaramillo, R. Gomperts, R. E. Stratmann, 
 O. Yazyev, A. J. Austin, R. Cammi, C. Pomelli, J. W. Ochterski, 
 R. L. Martin, K. Morokuma, V. G. Zakrzewski, G. A. Voth, 
 P. Salvador, J. J. Dannenberg, S. Dapprich, A. D. Daniels, 
 O. Farkas, J. B. Foresman, J. V. Ortiz, J. Cioslowski, 
 and D. J. Fox, Gaussian, Inc., Wallingford CT, 2013.
 
 ******************************************
 Gaussian 09:  EM64L-G09RevD.01 24-Apr-2013
                17-May-2024 
 ******************************************
 %chk=job1.chk
 %nproc=24
 Will use up to   24 processors via shared memory.
 %mem=48000mb
 --------------------------
 #P PBE1PBE/GEN pop=nboread
 --------------------------
 1/38=1/1;
 2/12=2,17=6,18=5,40=1/2;
 3/5=7,11=2,16=1,25=1,30=1,74=-13/1,2,3;
 4//1;
 5/5=2,38=5/2;
 6/7=2,8=2,9=2,10=2,28=1,40=2/1,7;
 99/5=1,9=1/99;
 Leave Link    1 at Fri May 17 10:18:16 2024, MaxMem=  6291456000 cpu:         1.1
 (Enter /home/madghost/g09/l101.exe)
 ---
 H12
 ---
 Symbolic Z-matrix:
 Charge =  0 Multiplicity = 1
 6                    -0.29085   0.69838   2.59209 
 1                     0.5077    1.44452   2.54342 
 1                    -0.81511   0.83182   3.5436 
 6                     0.29085  -0.69838   2.59209 
 1                     0.81511  -0.83182   3.5436 
 1                    -0.5077   -1.44452   2.54342 
 8                    -1.2587    0.9267    1.59101 
 8                     1.2587   -0.9267    1.59101 
 6                    -0.91149   1.54745   0.43128 
 6                     0.394     1.73325  -0.00585 
 6                    -1.97492   1.98596  -0.35226 
 6                     0.62159   2.36725  -1.21995 
 6                    -1.73231   2.61011  -1.56156 
 6                    -0.43059   2.80941  -2.00325 
 1                     1.23056   1.35631   0.56621 
 1                    -2.98425   1.82744   0.00823 
 1                     1.64301   2.49977  -1.55801 
 1                    -2.56879   2.94729  -2.16314 
 1                    -0.24128   3.29774  -2.95132 
 6                     0.91149  -1.54745   0.43128 
 6                     1.97492  -1.98596  -0.35226 
 6                    -0.394    -1.73325  -0.00585 
 6                     1.73231  -2.61011  -1.56156 
 6                    -0.62159  -2.36725  -1.21995 
 6                     0.43059  -2.80941  -2.00325 
 1                     2.98425  -1.82744   0.00823 
 1                    -1.23056  -1.35631   0.56621 
 1                     2.56879  -2.94729  -2.16314 
 1                    -1.64301  -2.49977  -1.55801 
 1                     0.24128  -3.29774  -2.95132 
 
 NAtoms=     30 NQM=       30 NQMF=       0 NMMI=      0 NMMIF=      0
                NMic=       0 NMicF=      0.
                    Isotopes and Nuclear Properties:
 (Nuclear quadrupole moments (NQMom) in fm**2, nuclear magnetic moments (NMagM)
  in nuclear magnetons)

  Atom         1           2           3           4           5           6           7           8           9          10
 IAtWgt=          12           1           1          12           1           1          16          16          12          12
 AtmWgt=  12.0000000   1.0078250   1.0078250  12.0000000   1.0078250   1.0078250  15.9949146  15.9949146  12.0000000  12.0000000
 NucSpn=           0           1           1           0           1           1           0           0           0           0
 AtZEff=   0.0000000   0.0000000   0.0000000   0.0000000   0.0000000   0.0000000   0.0000000   0.0000000   0.0000000   0.0000000
 NQMom=    0.0000000   0.0000000   0.0000000   0.0000000   0.0000000   0.0000000   0.0000000   0.0000000   0.0000000   0.0000000
 NMagM=    0.0000000   2.7928460   2.7928460   0.0000000   2.7928460   2.7928460   0.0000000   0.0000000   0.0000000   0.0000000
 AtZNuc=   6.0000000   1.0000000   1.0000000   6.0000000   1.0000000   1.0000000   8.0000000   8.0000000   6.0000000   6.0000000

  Atom        11          12          13          14          15          16          17          18          19          20
 IAtWgt=          12          12          12          12           1           1           1           1           1          12
 AtmWgt=  12.0000000  12.0000000  12.0000000  12.0000000   1.0078250   1.0078250   1.0078250   1.0078250   1.0078250  12.0000000
 NucSpn=           0           0           0           0           1           1           1           1           1           0
 AtZEff=   0.0000000   0.0000000   0.0000000   0.0000000   0.0000000   0.0000000   0.0000000   0.0000000   0.0000000   0.0000000
 NQMom=    0.0000000   0.0000000   0.0000000   0.0000000   0.0000000   0.0000000   0.0000000   0.0000000   0.0000000   0.0000000
 NMagM=    0.0000000   0.0000000   0.0000000   0.0000000   2.7928460   2.7928460   2.7928460   2.7928460   2.7928460   0.0000000
 AtZNuc=   6.0000000   6.0000000   6.0000000   6.0000000   1.0000000   1.0000000   1.0000000   1.0000000   1.0000000   6.0000000

  Atom        21          22          23          24          25          26          27          28          29          30
 IAtWgt=          12          12          12          12          12           1           1           1           1           1
 AtmWgt=  12.0000000  12.0000000  12.0000000  12.0000000  12.0000000   1.0078250   1.0078250   1.0078250   1.0078250   1.0078250
 NucSpn=           0           0           0           0           0           1           1           1           1           1
 AtZEff=   0.0000000   0.0000000   0.0000000   0.0000000   0.0000000   0.0000000   0.0000000   0.0000000   0.0000000   0.0000000
 NQMom=    0.0000000   0.0000000   0.0000000   0.0000000   0.0000000   0.0000000   0.0000000   0.0000000   0.0000000   0.0000000
 NMagM=    0.0000000   0.0000000   0.0000000   0.0000000   0.0000000   2.7928460   2.7928460   2.7928460   2.7928460   2.7928460
 AtZNuc=   6.0000000   6.0000000   6.0000000   6.0000000   6.0000000   1.0000000   1.0000000   1.0000000   1.0000000   1.0000000
 Leave Link  101 at Fri May 17 10:18:16 2024, MaxMem=  6291456000 cpu:         3.0
 (Enter /home/madghost/g09/l202.exe)
                          Input orientation:                          
 ---------------------------------------------------------------------
 Center     Atomic      Atomic             Coordinates (Angstroms)
 Number     Number       Type             X           Y           Z
 ---------------------------------------------------------------------
      1          6           0       -0.290854    0.698377    2.592092
      2          1           0        0.507699    1.444522    2.543415
      3          1           0       -0.815114    0.831818    3.543595
      4          6           0        0.290854   -0.698377    2.592092
      5          1           0        0.815114   -0.831818    3.543595
      6          1           0       -0.507699   -1.444522    2.543415
      7          8           0       -1.258695    0.926700    1.591010
      8          8           0        1.258695   -0.926700    1.591010
      9          6           0       -0.911490    1.547450    0.431281
     10          6           0        0.394000    1.733254   -0.005852
     11          6           0       -1.974922    1.985962   -0.352263
     12          6           0        0.621590    2.367249   -1.219953
     13          6           0       -1.732306    2.610106   -1.561562
     14          6           0       -0.430587    2.809413   -2.003250
     15          1           0        1.230561    1.356311    0.566209
     16          1           0       -2.984252    1.827439    0.008228
     17          1           0        1.643007    2.499768   -1.558013
     18          1           0       -2.568786    2.947285   -2.163143
     19          1           0       -0.241277    3.297736   -2.951322
     20          6           0        0.911490   -1.547450    0.431281
     21          6           0        1.974922   -1.985962   -0.352263
     22          6           0       -0.394000   -1.733254   -0.005852
     23          6           0        1.732306   -2.610106   -1.561562
     24          6           0       -0.621590   -2.367249   -1.219953
     25          6           0        0.430587   -2.809413   -2.003250
     26          1           0        2.984252   -1.827439    0.008228
     27          1           0       -1.230561   -1.356311    0.566209
     28          1           0        2.568786   -2.947285   -2.163143
     29          1           0       -1.643007   -2.499768   -1.558013
     30          1           0        0.241277   -3.297736   -2.951322
 ---------------------------------------------------------------------
                    Distance matrix (angstroms):
                    1          2          3          4          5
     1  C    0.000000
     2  H    1.093978   0.000000
     3  H    1.094538   1.767937   0.000000
     4  C    1.513045   2.154393   2.114242   0.000000
     5  H    2.114242   2.505312   2.329233   1.094538   0.000000
     6  H    2.154393   3.062288   2.505312   1.093978   1.767937
     7  O    1.411033   2.072526   2.004583   2.458484   3.347485
     8  O    2.458484   2.663412   3.347485   1.411033   2.004583
     9  C    2.403168   2.546724   3.194983   3.340430   4.281189
    10  C    2.879116   2.568084   3.856568   3.559885   4.399489
    11  C    3.628111   3.852469   4.225507   4.583519   5.558947
    12  C    4.260208   3.876511   5.207020   4.902972   5.741330
    13  C    4.794302   4.819444   5.483263   5.682612   6.663244
    14  C    5.058969   4.838953   5.901375   5.825997   6.751135
    15  H    2.617591   2.107049   3.650302   3.034632   3.718243
    16  H    3.899426   4.332150   4.265588   4.876722   5.831436
    17  H    4.920183   4.384539   5.903458   5.411083   6.149087
    18  H    5.732261   5.820201   6.333832   6.639326   7.635395
    19  H    6.122791   5.847008   6.970939   6.854307   7.768727
    20  C    3.340430   3.684570   4.281189   2.403168   3.194983
    21  C    4.583519   4.722914   5.558947   3.628111   4.225507
    22  C    3.559885   4.172539   4.399489   2.879116   3.856568
    23  C    5.682612   5.898348   6.663244   4.794302   5.483263
    24  C    4.902972   5.474288   5.741330   4.260208   5.207020
    25  C    5.825997   6.226883   6.751135   5.058969   5.901375
    26  H    4.876722   4.823507   5.831436   3.899426   4.265588
    27  H    3.034632   3.843899   3.718243   2.617591   3.650302
    28  H    6.639326   6.759270   7.635395   5.732261   6.333832
    29  H    5.411083   6.083147   6.149087   4.920183   5.903458
    30  H    6.854307   7.263066   7.768727   6.122791   6.970939
                    6          7          8          9         10
     6  H    0.000000
     7  O    2.663412   0.000000
     8  O    2.072526   3.126075   0.000000
     9  C    3.684570   1.360461   3.489426   0.000000
    10  C    4.172539   2.435549   3.220717   1.389213   0.000000
    11  C    4.722914   2.326226   4.766150   1.391805   2.407416
    12  C    5.474288   3.675890   4.376930   2.397703   1.388448
    13  C    5.898348   3.605118   5.603016   2.402998   2.776739
    14  C    6.226883   4.141144   5.452607   2.784019   2.414055
    15  H    3.843899   2.726019   2.502628   2.154791   1.081284
    16  H    4.823507   2.508800   5.300291   2.133942   3.379594
    17  H    6.083147   4.561882   4.669553   3.374856   2.134658
    18  H    6.759270   4.460131   6.614457   3.381894   3.860813
    19  H    7.263066   5.223957   6.381893   3.867129   3.395140
    20  C    2.546724   3.489426   1.360461   3.591888   3.349910
    21  C    3.852469   4.766150   2.326226   4.629289   4.056092
    22  C    2.568084   3.220717   2.435549   3.349910   3.554943
    23  C    4.819444   5.603016   3.605118   5.314730   4.803756
    24  C    3.876511   4.376930   3.675890   4.258578   4.395405
    25  C    4.838953   5.452607   4.141144   5.168207   4.962536
    26  H    4.332150   5.300291   2.508800   5.171620   4.403196
    27  H    2.107049   2.502628   2.726019   2.924353   3.537211
    28  H    5.820201   6.614457   4.460131   6.248680   5.593840
    29  H    4.384539   4.669553   4.561882   4.568630   4.947431
    30  H    5.847008   6.381893   5.223957   6.020523   5.831807
                   11         12         13         14         15
    11  C    0.000000
    12  C    2.764080   0.000000
    13  C    1.382325   2.390921   0.000000
    14  C    2.405993   1.384247   1.388987   0.000000
    15  H    3.393401   2.140845   3.857200   3.387187   0.000000
    16  H    1.083435   3.847326   2.155035   3.395809   4.277611
    17  H    3.848018   1.084038   3.377118   2.143340   2.447432
    18  H    2.134503   3.377062   1.084107   2.148597   4.941214
    19  H    3.388419   2.146622   2.151147   1.083115   4.278839
    20  C    4.629289   4.258578   5.314730   5.168207   2.924353
    21  C    5.601558   4.640565   6.027419   5.613186   3.545201
    22  C    4.056092   4.395405   4.803756   4.962536   3.537211
    23  C    6.027419   5.111208   6.265313   5.851870   4.528976
    24  C    4.640565   4.894994   5.111208   5.239071   4.526117
    25  C    5.613186   5.239071   5.851870   5.684437   4.959368
    26  H    6.266210   4.968502   6.663480   6.099800   3.677368
    27  H    3.545201   4.526117   4.528976   4.959368   3.662709
    28  H    6.947049   5.738070   7.053076   6.493179   5.268885
    29  H    4.656799   5.378712   5.110655   5.464028   5.257286
    30  H    6.291590   5.935851   6.381932   6.216712   5.917082
                   16         17         18         19         20
    16  H    0.000000
    17  H    4.931193   0.000000
    18  H    2.478209   4.278511   0.000000
    19  H    4.294720   2.475599   2.482205   0.000000
    20  C    5.171620   4.568630   6.248680   6.020523   0.000000
    21  C    6.266210   4.656799   6.947049   6.291590   1.391805
    22  C    4.403196   4.947431   5.593840   5.831807   1.389213
    23  C    6.663480   5.110655   7.053076   6.381932   2.402998
    24  C    4.968502   5.378712   5.738070   5.935851   2.397703
    25  C    6.099800   5.464028   6.493179   6.216712   2.784019
    26  H    6.998655   4.793409   7.638656   6.740207   2.133942
    27  H    3.677368   5.257286   5.268885   5.917082   2.154791
    28  H    7.638656   5.558204   7.819246   6.893328   3.381894
    29  H    4.793409   5.982746   5.558204   6.125129   3.374856
    30  H    6.740207   6.125129   6.893328   6.613101   3.867129
                   21         22         23         24         25
    21  C    0.000000
    22  C    2.407416   0.000000
    23  C    1.382325   2.776739   0.000000
    24  C    2.764080   1.388448   2.390921   0.000000
    25  C    2.405993   2.414055   1.388987   1.384247   0.000000
    26  H    1.083435   3.379594   2.155035   3.847326   3.395809
    27  H    3.393401   1.081284   3.857200   2.140845   3.387187
    28  H    2.134503   3.860813   1.084107   3.377062   2.148597
    29  H    3.848018   2.134658   3.377118   1.084038   2.143340
    30  H    3.388419   3.395140   2.151147   2.146622   1.083115
                   26         27         28         29         30
    26  H    0.000000
    27  H    4.277611   0.000000
    28  H    2.478209   4.941214   0.000000
    29  H    4.931193   2.447432   4.278511   0.000000
    30  H    4.294720   4.278839   2.482205   2.475599   0.000000
 Stoichiometry    C14H14O2
 Framework group  C2[X(C14H14O2)]
 Deg. of freedom    43
 Full point group                 C2      NOp   2
 Largest Abelian subgroup         C2      NOp   2
 Largest concise Abelian subgroup C2      NOp   2
                         Standard orientation:                         
 ---------------------------------------------------------------------
 Center     Atomic      Atomic             Coordinates (Angstroms)
 Number     Number       Type             X           Y           Z
 ---------------------------------------------------------------------
      1          6           0       -0.450221    0.607970    2.592092
      2          1           0        0.145531    1.524212    2.543415
      3          1           0       -0.991186    0.611460    3.543595
      4          6           0        0.450221   -0.607970    2.592092
      5          1           0        0.991186   -0.611460    3.543595
      6          1           0       -0.145531   -1.524212    2.543415
      7          8           0       -1.444568    0.596918    1.591010
      8          8           0        1.444568   -0.596918    1.591010
      9          6           0       -1.256780    1.282934    0.431281
     10          6           0       -0.034248    1.777142   -0.005852
     11          6           0       -2.394446    1.452924   -0.352263
     12          6           0        0.034248    2.447257   -1.219953
     13          6           0       -2.308997    2.117090   -1.561562
     14          6           0       -1.093371    2.623499   -2.003250
     15          1           0        0.868399    1.612372    0.566209
     16          1           0       -3.336063    1.056397    0.008228
     17          1           0        0.993849    2.821449   -1.558013
     18          1           0       -3.202005    2.243282   -2.163143
     19          1           0       -1.027011    3.143012   -2.951322
     20          6           0        1.256780   -1.282934    0.431281
     21          6           0        2.394446   -1.452924   -0.352263
     22          6           0        0.034248   -1.777142   -0.005852
     23          6           0        2.308997   -2.117090   -1.561562
     24          6           0       -0.034248   -2.447257   -1.219953
     25          6           0        1.093371   -2.623499   -2.003250
     26          1           0        3.336063   -1.056397    0.008228
     27          1           0       -0.868399   -1.612372    0.566209
     28          1           0        3.202005   -2.243282   -2.163143
     29          1           0       -0.993849   -2.821449   -1.558013
     30          1           0        1.027011   -3.143012   -2.951322
 ---------------------------------------------------------------------
 Rotational constants (GHZ):      0.7298768      0.4527092      0.3494680
 Leave Link  202 at Fri May 17 10:18:16 2024, MaxMem=  6291456000 cpu:         0.2
 (Enter /home/madghost/g09/l301.exe)
 General basis read from cards:  (5D, 7F)
 Centers:       2      3      5      6     15     16     17     18     19     26
 Centers:      27     28     29     30
 S 3 1.00
     Exponent=  3.4061341000D+01 Coefficients=  6.0251978000D-03
     Exponent=  5.1235746000D+00 Coefficients=  4.5021094000D-02
     Exponent=  1.1646626000D+00 Coefficients=  2.0189726000D-01
 S 1 1.00
     Exponent=  3.2723041000D-01 Coefficients=  1.0000000000D+00
 S 1 1.00
     Exponent=  1.0307241000D-01 Coefficients=  1.0000000000D+00
 P 1 1.00
     Exponent=  1.4070000000D+00 Coefficients=  1.0000000000D+00
 P 1 1.00
     Exponent=  3.8800000000D-01 Coefficients=  1.0000000000D+00
 D 1 1.00
     Exponent=  1.0570000000D+00 Coefficients=  1.0000000000D+00
 ****
 Centers:       1      4      9     10     11     12     13     14     20     21
 Centers:      22     23     24     25
 S 6 1.00
     Exponent=  1.3575349682D+04 Coefficients=  2.2245814352D-04
     Exponent=  2.0352333680D+03 Coefficients=  1.7232738252D-03
     Exponent=  4.6322562359D+02 Coefficients=  8.9255715314D-03
     Exponent=  1.3120019598D+02 Coefficients=  3.5727984502D-02
     Exponent=  4.2853015891D+01 Coefficients=  1.1076259931D-01
     Exponent=  1.5584185766D+01 Coefficients=  2.4295627626D-01
 S 2 1.00
     Exponent=  6.2067138508D+00 Coefficients=  4.1440263448D-01
     Exponent=  2.5764896527D+00 Coefficients=  2.3744968655D-01
 S 1 1.00
     Exponent=  5.7696339419D-01 Coefficients=  1.0000000000D+00
 S 1 1.00
     Exponent=  2.2972831358D-01 Coefficients=  1.0000000000D+00
 S 1 1.00
     Exponent=  9.5164440028D-02 Coefficients=  1.0000000000D+00
 P 4 1.00
     Exponent=  3.4697232244D+01 Coefficients=  5.3333657805D-03
     Exponent=  7.9582622826D+00 Coefficients=  3.5864109092D-02
     Exponent=  2.3780826883D+00 Coefficients=  1.4215873329D-01
     Exponent=  8.1433208183D-01 Coefficients=  3.4270471845D-01
 P 1 1.00
     Exponent=  2.8887547253D-01 Coefficients=  4.6445822433D-01
 P 1 1.00
     Exponent=  1.0056823671D-01 Coefficients=  2.4955789874D-01
 D 1 1.00
     Exponent=  1.0970000000D+00 Coefficients=  1.0000000000D+00
 D 1 1.00
     Exponent=  3.1800000000D-01 Coefficients=  1.0000000000D+00
 F 1 1.00
     Exponent=  7.6100000000D-01 Coefficients=  1.0000000000D+00
 ****
 Centers:       7      8
 S 6 1.00
     Exponent=  2.7032382631D+04 Coefficients=  2.1726302465D-04
     Exponent=  4.0523871392D+03 Coefficients=  1.6838662199D-03
     Exponent=  9.2232722710D+02 Coefficients=  8.7395616265D-03
     Exponent=  2.6124070989D+02 Coefficients=  3.5239968808D-02
     Exponent=  8.5354641351D+01 Coefficients=  1.1153519115D-01
     Exponent=  3.1035035245D+01 Coefficients=  2.5588953961D-01
 S 2 1.00
     Exponent=  1.2260860728D+01 Coefficients=  3.9768730901D-01
     Exponent=  4.9987076005D+00 Coefficients=  2.4627849430D-01
 S 1 1.00
     Exponent=  1.1703108158D+00 Coefficients=  1.0000000000D+00
 S 1 1.00
     Exponent=  4.6474740994D-01 Coefficients=  1.0000000000D+00
 S 1 1.00
     Exponent=  1.8504536357D-01 Coefficients=  1.0000000000D+00
 P 4 1.00
     Exponent=  6.3274954801D+01 Coefficients=  6.0685103418D-03
     Exponent=  1.4627049379D+01 Coefficients=  4.1912575824D-02
     Exponent=  4.4501223456D+00 Coefficients=  1.6153841088D-01
     Exponent=  1.5275799647D+00 Coefficients=  3.5706951311D-01
 P 1 1.00
     Exponent=  5.2935117943D-01 Coefficients=  4.4794207502D-01
 P 1 1.00
     Exponent=  1.7478421270D-01 Coefficients=  2.4446069663D-01
 D 1 1.00
     Exponent=  2.3140000000D+00 Coefficients=  1.0000000000D+00
 D 1 1.00
     Exponent=  6.4500000000D-01 Coefficients=  1.0000000000D+00
 F 1 1.00
     Exponent=  1.4280000000D+00 Coefficients=  1.0000000000D+00
 ****
 Ernie: Thresh=  0.10000D-02 Tol=  0.10000D-05 Strict=F.
 There are   393 symmetry adapted cartesian basis functions of A   symmetry.
 There are   393 symmetry adapted cartesian basis functions of B   symmetry.
 There are   346 symmetry adapted basis functions of A   symmetry.
 There are   346 symmetry adapted basis functions of B   symmetry.
   692 basis functions,  1054 primitive gaussians,   786 cartesian basis functions
    57 alpha electrons       57 beta electrons
       nuclear repulsion energy      1066.4524956597 Hartrees.
 IExCor= 1009 DFT=T Ex+Corr=PBE1PBE ExCW=0 ScaHFX=  0.250000
 ScaDFX=  0.750000  0.750000  1.000000  1.000000 ScalE2=  1.000000  1.000000
 IRadAn=      0 IRanWt=     -1 IRanGd=            0 ICorTp=0 IEmpDi=  4
 NAtoms=   30 NActive=   30 NUniq=   15 SFac= 4.00D+00 NAtFMM=   60 NAOKFM=F Big=F
 Integral buffers will be    131072 words long.
 Raffenetti 2 integral format.
 Two-electron integral symmetry is turned on.
 Leave Link  301 at Fri May 17 10:18:17 2024, MaxMem=  6291456000 cpu:         2.9
 (Enter /home/madghost/g09/l302.exe)
 NPDir=0 NMtPBC=     1 NCelOv=     1 NCel=       1 NClECP=     1 NCelD=      1
         NCelK=      1 NCelE2=     1 NClLst=     1 CellRange=     0.0.
 One-electron integrals computed using PRISM.
 One-electron integral symmetry used in STVInt
 NBasis=   692 RedAO= T EigKep=  5.63D-06  NBF=   346   346
 NBsUse=   692 1.00D-06 EigRej= -1.00D+00 NBFU=   346   346
 Precomputing XC quadrature grid using
 IXCGrd= 4 IRadAn=           0 IRanWt=          -1 IRanGd=           0 AccXCQ= 0.00D+00.
 Generated NRdTot=       0 NPtTot=           0 NUsed=           0 NTot=          32
 NSgBfM=   776   776   776   778   778 MxSgAt=    30 MxSgA2=    30.
 Leave Link  302 at Fri May 17 10:18:18 2024, MaxMem=  6291456000 cpu:        36.7
 (Enter /home/madghost/g09/l303.exe)
 DipDrv:  MaxL=1.
 Leave Link  303 at Fri May 17 10:18:19 2024, MaxMem=  6291456000 cpu:         4.2
 (Enter /home/madghost/g09/l401.exe)
 ExpMin= 9.52D-02 ExpMax= 2.70D+04 ExpMxC= 9.22D+02 IAcc=2 IRadAn=         4 AccDes= 0.00D+00
 Harris functional with IExCor= 1009 and IRadAn=       4 diagonalized for initial guess.
 HarFok:  IExCor= 1009 AccDes= 0.00D+00 IRadAn=         4 IDoV= 1 UseB2=F ITyADJ=14
 ICtDFT=  3500011 ScaDFX=  1.000000  1.000000  1.000000  1.000000
 FoFCou: FMM=F IPFlag=           0 FMFlag=      100000 FMFlg1=           0
         NFxFlg=           0 DoJE=T BraDBF=F KetDBF=T FulRan=T
         wScrn=  0.000000 ICntrl=     500 IOpCl=  0 I1Cent=   200000004 NGrid=           0
         NMat0=    1 NMatS0=      1 NMatT0=    0 NMatD0=    1 NMtDS0=    0 NMtDT0=    0
 Petite list used in FoFCou.
 Harris En= -692.029238919007    
 JPrj=0 DoOrth=F DoCkMO=F.
 Initial guess orbital symmetries:
       Occupied  (A) (B) (B) (A) (B) (A) (B) (A) (B) (A) (B) (A)
                 (A) (B) (B) (A) (A) (B) (A) (B) (A) (B) (A) (B)
                 (A) (B) (A) (B) (A) (B) (B) (A) (A) (B) (B) (A)
                 (A) (B) (A) (A) (B) (A) (B) (B) (B) (A) (A) (A)
                 (B) (B) (B) (A) (A) (A) (B) (B) (A)
       Virtual   (A) (B) (B) (A) (B) (A) (A) (B) (A) (B) (B) (A)
                 (A) (B) (A) (A) (B) (B) (A) (B) (B) (A) (A) (B)
                 (A) (B) (B) (A) (A) (B) (B) (A) (A) (B) (A) (B)
                 (A) (B) (A) (B) (A) (B) (B) (B) (A) (A) (A) (A)
                 (B) (B) (A) (B) (B) (A) (A) (B) (A) (B) (B) (A)
                 (A) (B) (B) (A) (B) (A) (A) (B) (A) (B) (B) (B)
                 (A) (A) (A) (B) (B) (A) (A) (B) (B) (A) (B) (B)
                 (A) (B) (A) (A) (B) (A) (B) (B) (A) (A) (A) (B)
                 (B) (A) (B) (A) (A) (B) (A) (A) (B) (A) (B) (B)
                 (A) (B) (A) (B) (A) (B) (B) (A) (B) (A) (B) (A)
                 (B) (A) (B) (A) (B) (A) (B) (A) (B) (A) (B) (A)
                 (B) (A) (A) (B) (A) (B) (A) (A) (B) (B) (B) (B)
                 (A) (A) (A) (B) (A) (B) (A) (B) (B) (A) (B) (A)
                 (B) (B) (A) (B) (A) (B) (A) (B) (A) (A) (B) (A)
                 (B) (A) (A) (B) (A) (A) (B) (B) (B) (A) (B) (B)
                 (A) (B) (B) (B) (A) (A) (A) (A) (B) (B) (A) (B)
                 (A) (B) (A) (A) (B) (B) (A) (A) (B) (A) (B) (B)
                 (B) (A) (B) (A) (A) (B) (A) (B) (B) (A) (B) (A)
                 (A) (A) (B) (B) (A) (B) (A) (A) (B) (A) (B) (B)
                 (A) (A) (B) (B) (A) (B) (A) (A) (B) (A) (B) (A)
                 (A) (B) (B) (A) (B) (B) (A) (A) (B) (A) (B) (A)
                 (B) (A) (B) (A) (A) (B) (A) (A) (B) (B) (B) (A)
                 (B) (A) (A) (B) (B) (A) (B) (A) (B) (A) (A) (B)
                 (A) (B) (A) (B) (B) (A) (A) (B) (B) (A) (B) (A)
                 (A) (B) (A) (B) (B) (A) (A) (B) (B) (B) (A) (A)
                 (B) (A) (B) (A) (A) (B) (B) (A) (A) (B) (B) (A)
                 (A) (B) (A) (A) (B) (B) (B) (A) (B) (A) (A) (B)
                 (A) (A) (B) (B) (B) (B) (A) (A) (A) (B) (A) (A)
                 (B) (B) (A) (B) (A) (B) (A) (B) (B) (A) (B) (B)
                 (A) (A) (B) (B) (A) (B) (A) (A) (A) (B) (A) (B)
                 (A) (B) (A) (B) (A) (B) (A) (B) (A) (B) (B) (B)
                 (A) (B) (A) (B) (A) (B) (B) (A) (A) (B) (A) (A)
                 (B) (B) (A) (B) (A) (A) (B) (A) (B) (B) (A) (A)
                 (B) (B) (A) (B) (A) (B) (A) (A) (B) (A) (B) (B)
                 (A) (B) (A) (A) (B) (A) (B) (B) (A) (B) (A) (A)
                 (B) (A) (A) (B) (B) (A) (B) (B) (A) (B) (A) (A)
                 (B) (A) (B) (B) (A) (B) (A) (B) (A) (A) (B) (A)
                 (B) (A) (B) (A) (B) (A) (A) (B) (A) (A) (B) (A)
                 (B) (B) (A) (B) (A) (B) (A) (B) (A) (A) (B) (B)
                 (B) (A) (B) (A) (B) (B) (A) (A) (A) (B) (B) (A)
                 (B) (A) (B) (B) (A) (A) (B) (A) (A) (B) (B) (A)
                 (B) (A) (B) (A) (A) (B) (B) (A) (B) (A) (B) (B)
                 (A) (A) (B) (B) (A) (A) (B) (A) (B) (A) (B) (A)
                 (B) (A) (B) (A) (B) (B) (A) (A) (A) (B) (B) (A)
                 (B) (A) (A) (B) (B) (A) (A) (B) (A) (A) (B) (B)
                 (B) (A) (A) (B) (B) (A) (A) (B) (A) (B) (A) (B)
                 (B) (A) (A) (B) (B) (A) (A) (B) (A) (B) (B) (A)
                 (B) (A) (B) (B) (A) (A) (A) (B) (B) (A) (B) (A)
                 (A) (A) (B) (B) (B) (A) (B) (A) (B) (A) (B) (B)
                 (A) (B) (A) (B) (A) (B) (A) (B) (A) (B) (A) (B)
                 (A) (B) (A) (A) (B) (A) (B) (A) (B) (B) (A) (B)
                 (A) (A) (B) (A) (B) (A) (B) (A) (B) (B) (A) (A)
                 (B) (A) (B) (B) (A) (A) (B) (A) (B) (B) (A)
 The electronic state of the initial guess is 1-A.
 Leave Link  401 at Fri May 17 10:18:22 2024, MaxMem=  6291456000 cpu:        74.1
 (Enter /home/madghost/g09/l502.exe)
 Closed shell SCF:
 Using DIIS extrapolation, IDIIS=  1040.
 Integral symmetry usage will be decided dynamically.
 IVT=     1897486 IEndB=     1897486 NGot=  6291456000 MDV=  6290193737
 LenX=  6290193737 LenY=  6289575155
 Requested convergence on RMS density matrix=1.00D-08 within 128 cycles.
 Requested convergence on MAX density matrix=1.00D-06.
 Requested convergence on             energy=1.00D-06.
 No special actions if energy rises.
 Fock matrices will be formed incrementally for  20 cycles.
 Integral accuracy reduced to 1.0D-05 until final iterations.

 Cycle   1  Pass 0  IDiag  1:
 FoFJK:  IHMeth= 1 ICntrl=       0 DoSepK=F KAlg= 0 I1Cent=   0 FoldK=F
 IRaf= 840000000 NMat=   1 IRICut=       1 DoRegI=T DoRafI=F ISym2E= 1.
 FoFCou: FMM=F IPFlag=           0 FMFlag=      100000 FMFlg1=           0
         NFxFlg=           0 DoJE=F BraDBF=F KetDBF=F FulRan=T
         wScrn=  0.000000 ICntrl=       0 IOpCl=  0 I1Cent=           0 NGrid=           0
         NMat0=    1 NMatS0=      1 NMatT0=    0 NMatD0=    1 NMtDS0=    0 NMtDT0=    0
 Petite list used in FoFCou.
 E= -691.418398173199    
 DIIS: error= 2.41D-02 at cycle   1 NSaved=   1.
 NSaved= 1 IEnMin= 1 EnMin= -691.418398173199     IErMin= 1 ErrMin= 2.41D-02
 ErrMax= 2.41D-02  0.00D+00 EMaxC= 1.00D-01 BMatC= 3.95D-01 BMatP= 3.95D-01
 IDIUse=3 WtCom= 7.59D-01 WtEn= 2.41D-01
 Coeff-Com:  0.100D+01
 Coeff-En:   0.100D+01
 Coeff:      0.100D+01
 Gap=     0.257 Goal=   None    Shift=    0.000
 GapD=    0.257 DampG=1.000 DampE=0.500 DampFc=0.5000 IDamp=-1.
 Damping current iteration by 5.00D-01
 RMSDP=2.65D-03 MaxDP=1.85D-01              OVMax= 2.04D-01

 Cycle   2  Pass 0  IDiag  1:
 RMSU=  1.33D-03    CP:  9.98D-01
 E= -691.586585979489     Delta-E=       -0.168187806290 Rises=F Damp=T
 DIIS: error= 4.65D-03 at cycle   2 NSaved=   2.
 NSaved= 2 IEnMin= 2 EnMin= -691.586585979489     IErMin= 2 ErrMin= 4.65D-03
 ErrMax= 4.65D-03  0.00D+00 EMaxC= 1.00D-01 BMatC= 2.93D-02 BMatP= 3.95D-01
 IDIUse=3 WtCom= 9.53D-01 WtEn= 4.65D-02
 Coeff-Com: -0.358D-02 0.100D+01
 Coeff-En:   0.587D-01 0.941D+00
 Coeff:     -0.681D-03 0.100D+01
 Gap=     0.300 Goal=   None    Shift=    0.000
 RMSDP=6.84D-04 MaxDP=2.83D-02 DE=-1.68D-01 OVMax= 1.50D-01

 Cycle   3  Pass 0  IDiag  1:
 RMSU=  6.82D-04    CP:  9.97D-01  1.04D+00
 E= -691.769686589148     Delta-E=       -0.183100609659 Rises=F Damp=F
 DIIS: error= 4.88D-03 at cycle   3 NSaved=   3.
 NSaved= 3 IEnMin= 3 EnMin= -691.769686589148     IErMin= 2 ErrMin= 4.65D-03
 ErrMax= 4.88D-03  0.00D+00 EMaxC= 1.00D-01 BMatC= 2.06D-02 BMatP= 2.93D-02
 IDIUse=3 WtCom= 9.51D-01 WtEn= 4.88D-02
 Coeff-Com: -0.677D-01 0.475D+00 0.592D+00
 Coeff-En:   0.000D+00 0.000D+00 0.100D+01
 Coeff:     -0.644D-01 0.452D+00 0.612D+00
 Gap=     0.235 Goal=   None    Shift=    0.000
 RMSDP=5.53D-04 MaxDP=4.14D-02 DE=-1.83D-01 OVMax= 6.66D-02

 Cycle   4  Pass 0  IDiag  1:
 RMSU=  3.69D-04    CP:  9.85D-01  8.05D-01  6.20D-01
 E= -691.783188269345     Delta-E=       -0.013501680197 Rises=F Damp=F
 DIIS: error= 3.62D-03 at cycle   4 NSaved=   4.
 NSaved= 4 IEnMin= 4 EnMin= -691.783188269345     IErMin= 4 ErrMin= 3.62D-03
 ErrMax= 3.62D-03  0.00D+00 EMaxC= 1.00D-01 BMatC= 7.38D-03 BMatP= 2.06D-02
 IDIUse=3 WtCom= 9.64D-01 WtEn= 3.62D-02
 Coeff-Com: -0.433D-01 0.161D+00 0.401D+00 0.481D+00
 Coeff-En:   0.000D+00 0.000D+00 0.284D+00 0.716D+00
 Coeff:     -0.417D-01 0.155D+00 0.397D+00 0.490D+00
 Gap=     0.226 Goal=   None    Shift=    0.000
 RMSDP=2.31D-04 MaxDP=1.55D-02 DE=-1.35D-02 OVMax= 2.75D-02

 Cycle   5  Pass 0  IDiag  1:
 RMSU=  9.77D-05    CP:  9.88D-01  9.13D-01  7.46D-01  6.61D-01
 E= -691.790458967275     Delta-E=       -0.007270697930 Rises=F Damp=F
 DIIS: error= 7.07D-04 at cycle   5 NSaved=   5.
 NSaved= 5 IEnMin= 5 EnMin= -691.790458967275     IErMin= 5 ErrMin= 7.07D-04
 ErrMax= 7.07D-04  0.00D+00 EMaxC= 1.00D-01 BMatC= 2.31D-04 BMatP= 7.38D-03
 IDIUse=3 WtCom= 9.93D-01 WtEn= 7.07D-03
 Coeff-Com: -0.134D-01 0.318D-01 0.123D+00 0.222D+00 0.636D+00
 Coeff-En:   0.000D+00 0.000D+00 0.000D+00 0.000D+00 0.100D+01
 Coeff:     -0.133D-01 0.316D-01 0.122D+00 0.221D+00 0.639D+00
 Gap=     0.226 Goal=   None    Shift=    0.000
 RMSDP=5.74D-05 MaxDP=3.16D-03 DE=-7.27D-03 OVMax= 4.39D-03

 Cycle   6  Pass 0  IDiag  1:
 RMSU=  3.75D-05    CP:  9.87D-01  8.85D-01  7.41D-01  7.24D-01  1.01D+00
 E= -691.790671295599     Delta-E=       -0.000212328324 Rises=F Damp=F
 DIIS: error= 1.85D-04 at cycle   6 NSaved=   6.
 NSaved= 6 IEnMin= 6 EnMin= -691.790671295599     IErMin= 6 ErrMin= 1.85D-04
 ErrMax= 1.85D-04  0.00D+00 EMaxC= 1.00D-01 BMatC= 2.50D-05 BMatP= 2.31D-04
 IDIUse=3 WtCom= 9.98D-01 WtEn= 1.85D-03
 Coeff-Com: -0.517D-02 0.968D-02 0.480D-01 0.980D-01 0.355D+00 0.495D+00
 Coeff-En:   0.000D+00 0.000D+00 0.000D+00 0.000D+00 0.000D+00 0.100D+01
 Coeff:     -0.516D-02 0.966D-02 0.479D-01 0.979D-01 0.354D+00 0.496D+00
 Gap=     0.226 Goal=   None    Shift=    0.000
 RMSDP=3.06D-05 MaxDP=2.34D-03 DE=-2.12D-04 OVMax= 1.24D-03

 Cycle   7  Pass 0  IDiag  1:
 RMSU=  1.43D-05    CP:  9.86D-01  8.71D-01  7.30D-01  7.52D-01  1.11D+00
                    CP:  1.24D+00
 E= -691.790695953603     Delta-E=       -0.000024658004 Rises=F Damp=F
 DIIS: error= 4.12D-05 at cycle   7 NSaved=   7.
 NSaved= 7 IEnMin= 7 EnMin= -691.790695953603     IErMin= 7 ErrMin= 4.12D-05
 ErrMax= 4.12D-05  0.00D+00 EMaxC= 1.00D-01 BMatC= 1.41D-06 BMatP= 2.50D-05
 IDIUse=1 WtCom= 1.00D+00 WtEn= 0.00D+00
 Coeff-Com: -0.127D-02 0.162D-02 0.118D-01 0.260D-01 0.112D+00 0.240D+00
 Coeff-Com:  0.610D+00
 Coeff:     -0.127D-02 0.162D-02 0.118D-01 0.260D-01 0.112D+00 0.240D+00
 Coeff:      0.610D+00
 Gap=     0.226 Goal=   None    Shift=    0.000
 RMSDP=2.81D-05 MaxDP=1.64D-03 DE=-2.47D-05 OVMax= 3.55D-04

 Cycle   8  Pass 0  IDiag  1:
 RMSU=  1.25D-05    CP:  9.86D-01  8.59D-01  7.22D-01  7.62D-01  1.14D+00
                    CP:  1.58D+00  1.89D+00
 E= -691.790699100764     Delta-E=       -0.000003147161 Rises=F Damp=F
 DIIS: error= 1.89D-05 at cycle   8 NSaved=   8.
 NSaved= 8 IEnMin= 8 EnMin= -691.790699100764     IErMin= 8 ErrMin= 1.89D-05
 ErrMax= 1.89D-05  0.00D+00 EMaxC= 1.00D-01 BMatC= 2.70D-07 BMatP= 1.41D-06
 IDIUse=1 WtCom= 1.00D+00 WtEn= 0.00D+00
 Coeff-Com:  0.137D-04-0.386D-03 0.382D-04 0.662D-03 0.140D-01 0.672D-01
 Coeff-Com:  0.329D+00 0.589D+00
 Coeff:      0.137D-04-0.386D-03 0.382D-04 0.662D-03 0.140D-01 0.672D-01
 Coeff:      0.329D+00 0.589D+00
 Gap=     0.226 Goal=   None    Shift=    0.000
 RMSDP=2.41D-05 MaxDP=9.59D-04 DE=-3.15D-06 OVMax= 1.16D-04

 Cycle   9  Pass 0  IDiag  1:
 RMSU=  8.45D-06    CP:  9.86D-01  8.53D-01  7.16D-01  7.59D-01  1.14D+00
                    CP:  1.82D+00  2.65D+00  2.21D+00
 E= -691.790703720768     Delta-E=       -0.000004620004 Rises=F Damp=F
 DIIS: error= 1.71D-05 at cycle   9 NSaved=   9.
 NSaved= 9 IEnMin= 9 EnMin= -691.790703720768     IErMin= 9 ErrMin= 1.71D-05
 ErrMax= 1.71D-05  0.00D+00 EMaxC= 1.00D-01 BMatC= 7.57D-08 BMatP= 2.70D-07
 IDIUse=1 WtCom= 1.00D+00 WtEn= 0.00D+00
 Coeff-Com:  0.981D-05-0.210D-03-0.265D-05 0.189D-03 0.714D-02 0.348D-01
 Coeff-Com:  0.165D+00 0.327D+00 0.466D+00
 Coeff:      0.981D-05-0.210D-03-0.265D-05 0.189D-03 0.714D-02 0.348D-01
 Coeff:      0.165D+00 0.327D+00 0.466D+00
 Gap=     0.226 Goal=   None    Shift=    0.000
 RMSDP=1.78D-05 MaxDP=7.98D-04 DE=-4.62D-06 OVMax= 2.61D-05

 Cycle  10  Pass 0  IDiag  1:
 RMSU=  3.76D-06    CP:  9.86D-01  8.55D-01  7.16D-01  7.50D-01  1.11D+00
                    CP:  1.92D+00  3.00D+00  3.00D+00  2.33D+00
 E= -691.790705117573     Delta-E=       -0.000001396804 Rises=F Damp=F
 DIIS: error= 1.93D-05 at cycle  10 NSaved=  10.
 NSaved=10 IEnMin=10 EnMin= -691.790705117573     IErMin= 9 ErrMin= 1.71D-05
 ErrMax= 1.93D-05  0.00D+00 EMaxC= 1.00D-01 BMatC= 8.04D-08 BMatP= 7.57D-08
 IDIUse=1 WtCom= 1.00D+00 WtEn= 0.00D+00
 Coeff-Com:  0.188D-04-0.235D-03-0.753D-04 0.349D-04 0.698D-02 0.361D-01
 Coeff-Com:  0.175D+00 0.358D+00 0.618D+00-0.193D+00
 Coeff:      0.188D-04-0.235D-03-0.753D-04 0.349D-04 0.698D-02 0.361D-01
 Coeff:      0.175D+00 0.358D+00 0.618D+00-0.193D+00
 Gap=     0.226 Goal=   None    Shift=    0.000
 RMSDP=5.33D-06 MaxDP=2.49D-04 DE=-1.40D-06 OVMax= 4.84D-06

 Initial convergence to 1.0D-05 achieved.  Increase integral accuracy.
 Cycle  11  Pass 1  IDiag  1:
 E= -691.790693143729     Delta-E=        0.000011973843 Rises=F Damp=F
 DIIS: error= 4.64D-04 at cycle   1 NSaved=   1.
 NSaved= 1 IEnMin= 1 EnMin= -691.790693143729     IErMin= 1 ErrMin= 4.64D-04
 ErrMax= 4.64D-04  0.00D+00 EMaxC= 1.00D-01 BMatC= 5.83D-05 BMatP= 5.83D-05
 IDIUse=3 WtCom= 9.95D-01 WtEn= 4.64D-03
 Coeff-Com:  0.100D+01
 Coeff-En:   0.100D+01
 Coeff:      0.100D+01
 Gap=     0.226 Goal=   None    Shift=    0.000
 RMSDP=5.33D-06 MaxDP=2.49D-04 DE= 1.20D-05 OVMax= 5.81D-04

 Cycle  12  Pass 1  IDiag  1:
 RMSU=  4.45D-04    CP:  9.96D-01
 E= -691.790718196521     Delta-E=       -0.000025052791 Rises=F Damp=F
 DIIS: error= 4.05D-06 at cycle   2 NSaved=   2.
 NSaved= 2 IEnMin= 2 EnMin= -691.790718196521     IErMin= 2 ErrMin= 4.05D-06
 ErrMax= 4.05D-06  0.00D+00 EMaxC= 1.00D-01 BMatC= 1.70D-08 BMatP= 5.83D-05
 IDIUse=1 WtCom= 1.00D+00 WtEn= 0.00D+00
 Coeff-Com: -0.669D-02 0.101D+01
 Coeff:     -0.669D-02 0.101D+01
 Gap=     0.226 Goal=   None    Shift=    0.000
 RMSDP=7.86D-06 MaxDP=2.77D-04 DE=-2.51D-05 OVMax= 6.61D-05

 Cycle  13  Pass 1  IDiag  1:
 RMSU=  4.65D-06    CP:  9.97D-01  1.01D+00
 E= -691.790718206605     Delta-E=       -0.000000010084 Rises=F Damp=F
 DIIS: error= 2.96D-06 at cycle   3 NSaved=   3.
 NSaved= 3 IEnMin= 3 EnMin= -691.790718206605     IErMin= 3 ErrMin= 2.96D-06
 ErrMax= 2.96D-06  0.00D+00 EMaxC= 1.00D-01 BMatC= 1.68D-08 BMatP= 1.70D-08
 IDIUse=1 WtCom= 1.00D+00 WtEn= 0.00D+00
 Coeff-Com: -0.368D-02 0.528D+00 0.476D+00
 Coeff:     -0.368D-02 0.528D+00 0.476D+00
 Gap=     0.226 Goal=   None    Shift=    0.000
 RMSDP=3.97D-07 MaxDP=2.94D-05 DE=-1.01D-08 OVMax= 2.97D-05

 Cycle  14  Pass 1  IDiag  1:
 RMSU=  3.06D-07    CP:  9.97D-01  1.01D+00  1.05D+00
 E= -691.790718218378     Delta-E=       -0.000000011772 Rises=F Damp=F
 DIIS: error= 8.92D-07 at cycle   4 NSaved=   4.
 NSaved= 4 IEnMin= 4 EnMin= -691.790718218378     IErMin= 4 ErrMin= 8.92D-07
 ErrMax= 8.92D-07  0.00D+00 EMaxC= 1.00D-01 BMatC= 1.35D-09 BMatP= 1.68D-08
 IDIUse=1 WtCom= 1.00D+00 WtEn= 0.00D+00
 Coeff-Com: -0.114D-03 0.549D-02 0.212D+00 0.783D+00
 Coeff:     -0.114D-03 0.549D-02 0.212D+00 0.783D+00
 Gap=     0.226 Goal=   None    Shift=    0.000
 RMSDP=1.88D-07 MaxDP=1.11D-05 DE=-1.18D-08 OVMax= 1.35D-05

 Cycle  15  Pass 1  IDiag  1:
 RMSU=  1.29D-07    CP:  9.97D-01  1.01D+00  1.07D+00  7.70D-01
 E= -691.790718219295     Delta-E=       -0.000000000917 Rises=F Damp=F
 DIIS: error= 5.18D-07 at cycle   5 NSaved=   5.
 NSaved= 5 IEnMin= 5 EnMin= -691.790718219295     IErMin= 5 ErrMin= 5.18D-07
 ErrMax= 5.18D-07  0.00D+00 EMaxC= 1.00D-01 BMatC= 1.51D-10 BMatP= 1.35D-09
 IDIUse=1 WtCom= 1.00D+00 WtEn= 0.00D+00
 Coeff-Com:  0.130D-03-0.246D-01 0.818D-01 0.401D+00 0.542D+00
 Coeff:      0.130D-03-0.246D-01 0.818D-01 0.401D+00 0.542D+00
 Gap=     0.226 Goal=   None    Shift=    0.000
 RMSDP=4.94D-08 MaxDP=3.06D-06 DE=-9.17D-10 OVMax= 4.93D-06

 Cycle  16  Pass 1  IDiag  1:
 RMSU=  2.89D-08    CP:  9.97D-01  1.01D+00  1.08D+00  8.49D-01  9.39D-01
 E= -691.790718219504     Delta-E=       -0.000000000209 Rises=F Damp=F
 DIIS: error= 2.46D-07 at cycle   6 NSaved=   6.
 NSaved= 6 IEnMin= 6 EnMin= -691.790718219504     IErMin= 6 ErrMin= 2.46D-07
 ErrMax= 2.46D-07  0.00D+00 EMaxC= 1.00D-01 BMatC= 2.76D-11 BMatP= 1.51D-10
 IDIUse=1 WtCom= 1.00D+00 WtEn= 0.00D+00
 Coeff-Com:  0.103D-03-0.175D-01 0.292D-01 0.170D+00 0.335D+00 0.483D+00
 Coeff:      0.103D-03-0.175D-01 0.292D-01 0.170D+00 0.335D+00 0.483D+00
 Gap=     0.226 Goal=   None    Shift=    0.000
 RMSDP=9.89D-09 MaxDP=4.46D-07 DE=-2.09D-10 OVMax= 1.79D-06

 SCF Done:  E(RPBE1PBE) =  -691.790718220     A.U. after   16 cycles
            NFock= 16  Conv=0.99D-08     -V/T= 2.0046
 KE= 6.885890374340D+02 PE=-3.744560539914D+03 EE= 1.297728288601D+03
 Leave Link  502 at Fri May 17 10:23:09 2024, MaxMem=  6291456000 cpu:      6886.0
 (Enter /home/madghost/g09/l601.exe)
 Copying SCF densities to generalized density rwf, IOpCl= 0 IROHF=0.

 **********************************************************************

            Population analysis using the SCF density.

 **********************************************************************

 Orbital symmetries:
       Occupied  (A) (B) (A) (B) (B) (A) (B) (A) (B) (A) (B) (A)
                 (B) (A) (A) (B) (A) (B) (A) (B) (A) (B) (A) (B)
                 (A) (B) (A) (B) (A) (B) (B) (A) (A) (B) (A) (A)
                 (B) (B) (A) (A) (B) (A) (B) (B) (A) (B) (A) (A)
                 (B) (B) (B) (A) (A) (A) (B) (B) (A)
       Virtual   (A) (B) (B) (A) (A) (B) (A) (B) (B) (A) (A) (A)
                 (B) (B) (A) (B) (A) (B) (B) (A) (A) (B) (A) (B)
                 (B) (A) (B) (A) (A) (A) (B) (B) (A) (B) (A) (B)
                 (A) (B) (A) (B) (B) (A) (A) (B) (A) (A) (B) (A)
                 (B) (B) (B) (A) (A) (B) (A) (B) (B) (A) (B) (A)
                 (A) (B) (A) (B) (B) (B) (A) (A) (B) (B) (A) (A)
                 (A) (B) (B) (B) (A) (A) (B) (B) (A) (A) (B) (B)
                 (B) (A) (A) (B) (A) (A) (B) (B) (A) (A) (A) (B)
                 (A) (B) (A) (B) (A) (B) (A) (A) (B) (A) (B) (B)
                 (A) (B) (A) (B) (A) (B) (B) (A) (A) (B) (B) (A)
                 (A) (B) (B) (A) (B) (A) (B) (A) (B) (A) (A) (B)
                 (A) (B) (A) (B) (B) (A) (A) (A) (B) (B) (B) (B)
                 (A) (A) (A) (B) (A) (B) (B) (A) (B) (A) (A) (B)
                 (B) (B) (A) (B) (A) (A) (B) (B) (A) (A) (B) (A)
                 (B) (B) (A) (A) (A) (B) (A) (B) (B) (B) (A) (B)
                 (B) (A) (B) (A) (A) (B) (A) (B) (B) (A) (A) (B)
                 (B) (A) (A) (A) (B) (A) (B) (B) (A) (A) (B) (B)
                 (A) (A) (B) (B) (A) (A) (B) (B) (B) (A) (B) (A)
                 (A) (A) (B) (A) (B) (B) (A) (B) (A) (A) (B) (B)
                 (A) (A) (B) (A) (B) (B) (A) (A) (B) (B) (A) (A)
                 (B) (A) (B) (A) (B) (A) (B) (A) (B) (B) (A) (A)
                 (A) (B) (B) (A) (B) (A) (A) (B) (A) (B) (B) (B)
                 (A) (A) (A) (B) (B) (A) (B) (B) (A) (A) (A) (A)
                 (B) (B) (A) (B) (B) (A) (B) (A) (B) (A) (B) (A)
                 (B) (A) (B) (A) (B) (A) (B) (A) (B) (B) (A) (A)
                 (A) (B) (B) (A) (A) (B) (B) (A) (A) (B) (A) (A)
                 (B) (B) (A) (B) (A) (B) (B) (A) (B) (A) (A) (B)
                 (A) (B) (A) (B) (B) (A) (B) (A) (A) (B) (A) (B)
                 (A) (B) (A) (A) (B) (B) (A) (B) (B) (A) (B) (B)
                 (A) (B) (A) (B) (A) (B) (A) (A) (A) (B) (A) (A)
                 (B) (B) (A) (B) (A) (B) (A) (B) (B) (A) (B) (B)
                 (A) (B) (A) (B) (A) (B) (B) (A) (A) (B) (A) (A)
                 (B) (B) (A) (A) (B) (A) (A) (B) (B) (B) (A) (A)
                 (B) (B) (A) (B) (A) (A) (A) (B) (B) (A) (B) (B)
                 (A) (B) (A) (A) (B) (A) (B) (B) (A) (A) (B) (B)
                 (A) (A) (B) (A) (B) (A) (B) (B) (A) (A) (B) (B)
                 (B) (A) (A) (A) (B) (A) (B) (B) (A) (A) (B) (A)
                 (B) (A) (B) (A) (B) (A) (A) (B) (A) (A) (A) (B)
                 (B) (B) (A) (B) (A) (B) (B) (A) (A) (A) (B) (B)
                 (B) (B) (A) (A) (B) (A) (B) (A) (B) (A) (B) (A)
                 (B) (A) (B) (A) (B) (B) (A) (A) (A) (B) (B) (B)
                 (A) (B) (A) (A) (B) (A) (B) (A) (B) (A) (B) (B)
                 (A) (A) (B) (B) (A) (A) (B) (A) (B) (A) (B) (A)
                 (A) (B) (B) (A) (B) (A) (B) (A) (A) (B) (B) (A)
                 (B) (A) (A) (B) (B) (A) (B) (A) (A) (A) (B) (B)
                 (B) (A) (A) (B) (B) (A) (A) (B) (A) (B) (A) (B)
                 (B) (A) (A) (B) (B) (A) (A) (B) (A) (B) (B) (A)
                 (B) (A) (B) (B) (A) (A) (A) (B) (B) (B) (A) (A)
                 (A) (A) (B) (B) (B) (B) (A) (A) (B) (A) (B) (B)
                 (A) (B) (A) (B) (A) (B) (A) (B) (A) (B) (A) (B)
                 (A) (B) (A) (A) (B) (A) (B) (A) (B) (B) (A) (B)
                 (A) (A) (B) (A) (B) (A) (B) (A) (B) (B) (A) (A)
                 (B) (A) (B) (B) (A) (A) (B) (A) (B) (B) (A)
 The electronic state is 1-A.
 Alpha  occ. eigenvalues --  -19.24170 -19.24170 -10.28633 -10.28607 -10.28353
 Alpha  occ. eigenvalues --  -10.28353 -10.22394 -10.22394 -10.22388 -10.22388
 Alpha  occ. eigenvalues --  -10.21939 -10.21939 -10.21821 -10.21821 -10.21557
 Alpha  occ. eigenvalues --  -10.21557  -1.11078  -1.09794  -0.88240  -0.87836
 Alpha  occ. eigenvalues --   -0.81504  -0.77344  -0.77012  -0.76732  -0.74212
 Alpha  occ. eigenvalues --   -0.68324  -0.63250  -0.62812  -0.61526  -0.59814
 Alpha  occ. eigenvalues --   -0.56674  -0.55553  -0.52011  -0.50440  -0.49922
 Alpha  occ. eigenvalues --   -0.49310  -0.48870  -0.45833  -0.45352  -0.44607
 Alpha  occ. eigenvalues --   -0.43354  -0.43141  -0.41999  -0.41784  -0.39296
 Alpha  occ. eigenvalues --   -0.38536  -0.37251  -0.37113  -0.36675  -0.35510
 Alpha  occ. eigenvalues --   -0.34260  -0.33583  -0.32373  -0.26580  -0.26495
 Alpha  occ. eigenvalues --   -0.23653  -0.23309
 Alpha virt. eigenvalues --   -0.00717  -0.00431   0.00854   0.01268   0.05374
 Alpha virt. eigenvalues --    0.06391   0.06569   0.07767   0.08960   0.09548
 Alpha virt. eigenvalues --    0.09949   0.10304   0.10460   0.11255   0.11556
 Alpha virt. eigenvalues --    0.12501   0.12782   0.13348   0.14105   0.14172
 Alpha virt. eigenvalues --    0.15468   0.16244   0.17469   0.18357   0.19363
 Alpha virt. eigenvalues --    0.19786   0.21720   0.21763   0.22209   0.22521
 Alpha virt. eigenvalues --    0.22615   0.23143   0.24014   0.24617   0.25064
 Alpha virt. eigenvalues --    0.25615   0.25719   0.27084   0.27831   0.28284
 Alpha virt. eigenvalues --    0.28455   0.28864   0.29970   0.30120   0.30745
 Alpha virt. eigenvalues --    0.30860   0.32785   0.33319   0.34161   0.35505
 Alpha virt. eigenvalues --    0.35715   0.35961   0.36738   0.36897   0.36992
 Alpha virt. eigenvalues --    0.37624   0.38468   0.38730   0.39211   0.39840
 Alpha virt. eigenvalues --    0.40571   0.41211   0.41776   0.42274   0.42537
 Alpha virt. eigenvalues --    0.43223   0.43298   0.44222   0.44592   0.45197
 Alpha virt. eigenvalues --    0.45372   0.45802   0.45948   0.46311   0.46535
 Alpha virt. eigenvalues --    0.47555   0.47594   0.48249   0.48937   0.50262
 Alpha virt. eigenvalues --    0.50680   0.50950   0.51264   0.52171   0.52590
 Alpha virt. eigenvalues --    0.52617   0.52946   0.54547   0.54887   0.56407
 Alpha virt. eigenvalues --    0.58176   0.59099   0.59115   0.60521   0.62428
 Alpha virt. eigenvalues --    0.62802   0.64693   0.65151   0.66559   0.68354
 Alpha virt. eigenvalues --    0.69010   0.69080   0.69203   0.69683   0.70092
 Alpha virt. eigenvalues --    0.70851   0.71283   0.71419   0.71478   0.73010
 Alpha virt. eigenvalues --    0.73238   0.74275   0.75594   0.76075   0.76896
 Alpha virt. eigenvalues --    0.77515   0.78492   0.79001   0.79795   0.80276
 Alpha virt. eigenvalues --    0.80738   0.81383   0.83299   0.84553   0.84854
 Alpha virt. eigenvalues --    0.85379   0.86093   0.87397   0.88967   0.90090
 Alpha virt. eigenvalues --    0.90734   0.90817   0.92501   0.93772   0.94808
 Alpha virt. eigenvalues --    0.94880   0.96568   0.96672   0.97185   0.98239
 Alpha virt. eigenvalues --    0.98888   0.99702   1.01013   1.01384   1.01978
 Alpha virt. eigenvalues --    1.02628   1.03935   1.04363   1.05765   1.06187
 Alpha virt. eigenvalues --    1.06625   1.06951   1.07731   1.09826   1.10220
 Alpha virt. eigenvalues --    1.10273   1.11047   1.12392   1.12803   1.13299
 Alpha virt. eigenvalues --    1.14631   1.15076   1.15192   1.16267   1.17068
 Alpha virt. eigenvalues --    1.17835   1.18943   1.19994   1.21313   1.22456
 Alpha virt. eigenvalues --    1.22657   1.23204   1.24406   1.25059   1.25716
 Alpha virt. eigenvalues --    1.25891   1.27704   1.28693   1.29506   1.31038
 Alpha virt. eigenvalues --    1.31389   1.31582   1.31932   1.32955   1.33220
 Alpha virt. eigenvalues --    1.34118   1.34440   1.35388   1.35932   1.36108
 Alpha virt. eigenvalues --    1.36861   1.37234   1.38977   1.39317   1.40789
 Alpha virt. eigenvalues --    1.41137   1.42042   1.44031   1.44159   1.45294
 Alpha virt. eigenvalues --    1.46397   1.46921   1.47849   1.48280   1.49543
 Alpha virt. eigenvalues --    1.50540   1.50636   1.51087   1.51646   1.52944
 Alpha virt. eigenvalues --    1.52970   1.54873   1.56343   1.56738   1.58761
 Alpha virt. eigenvalues --    1.59136   1.60013   1.60923   1.61676   1.62423
 Alpha virt. eigenvalues --    1.63259   1.63788   1.64993   1.66557   1.67097
 Alpha virt. eigenvalues --    1.68316   1.69660   1.70489   1.70993   1.72080
 Alpha virt. eigenvalues --    1.73034   1.74462   1.75884   1.76098   1.77022
 Alpha virt. eigenvalues --    1.79074   1.79145   1.81718   1.81901   1.85882
 Alpha virt. eigenvalues --    1.86778   1.87380   1.89907   1.89960   1.90628
 Alpha virt. eigenvalues --    1.93822   1.94516   1.95951   1.96589   1.97826
 Alpha virt. eigenvalues --    1.98598   2.00272   2.01385   2.01769   2.02556
 Alpha virt. eigenvalues --    2.03108   2.05298   2.05706   2.07896   2.08699
 Alpha virt. eigenvalues --    2.08871   2.11497   2.13936   2.17862   2.18642
 Alpha virt. eigenvalues --    2.18796   2.22773   2.23781   2.24967   2.26272
 Alpha virt. eigenvalues --    2.28085   2.29671   2.30280   2.30999   2.33094
 Alpha virt. eigenvalues --    2.35166   2.35457   2.36983   2.37086   2.38332
 Alpha virt. eigenvalues --    2.39721   2.39751   2.40655   2.41004   2.42581
 Alpha virt. eigenvalues --    2.44070   2.45814   2.46139   2.49744   2.50784
 Alpha virt. eigenvalues --    2.53322   2.53878   2.58089   2.60049   2.60619
 Alpha virt. eigenvalues --    2.62319   2.65221   2.66625   2.67739   2.68160
 Alpha virt. eigenvalues --    2.69755   2.69968   2.72761   2.74147   2.74638
 Alpha virt. eigenvalues --    2.75567   2.76374   2.76596   2.77715   2.77829
 Alpha virt. eigenvalues --    2.79786   2.79969   2.80081   2.80869   2.80923
 Alpha virt. eigenvalues --    2.81599   2.82045   2.83376   2.83909   2.84725
 Alpha virt. eigenvalues --    2.85104   2.87578   2.87644   2.89555   2.90436
 Alpha virt. eigenvalues --    2.90829   2.91714   2.92745   2.93423   2.93716
 Alpha virt. eigenvalues --    2.94681   2.95274   2.96945   2.97802   2.99473
 Alpha virt. eigenvalues --    3.00915   3.01438   3.03092   3.03345   3.03828
 Alpha virt. eigenvalues --    3.04833   3.05180   3.06168   3.06481   3.07137
 Alpha virt. eigenvalues --    3.07500   3.08236   3.09134   3.09225   3.09838
 Alpha virt. eigenvalues --    3.10645   3.10772   3.11407   3.11622   3.13857
 Alpha virt. eigenvalues --    3.14642   3.15370   3.15779   3.16608   3.16918
 Alpha virt. eigenvalues --    3.17704   3.18529   3.18722   3.19261   3.20839
 Alpha virt. eigenvalues --    3.20968   3.21265   3.21845   3.23594   3.23812
 Alpha virt. eigenvalues --    3.24678   3.25545   3.26230   3.27696   3.28026
 Alpha virt. eigenvalues --    3.28302   3.29641   3.30734   3.31992   3.32527
 Alpha virt. eigenvalues --    3.32922   3.33841   3.34714   3.35064   3.35648
 Alpha virt. eigenvalues --    3.36307   3.36835   3.37141   3.37201   3.38232
 Alpha virt. eigenvalues --    3.39585   3.39735   3.39942   3.40678   3.40908
 Alpha virt. eigenvalues --    3.42762   3.43970   3.44307   3.45022   3.48907
 Alpha virt. eigenvalues --    3.49330   3.49783   3.49845   3.49894   3.51886
 Alpha virt. eigenvalues --    3.52269   3.53068   3.54040   3.55081   3.56894
 Alpha virt. eigenvalues --    3.57033   3.58014   3.58186   3.58641   3.58708
 Alpha virt. eigenvalues --    3.61485   3.61980   3.63500   3.64643   3.66463
 Alpha virt. eigenvalues --    3.67120   3.68891   3.69496   3.70340   3.70910
 Alpha virt. eigenvalues --    3.72635   3.75056   3.75543   3.77436   3.78260
 Alpha virt. eigenvalues --    3.78647   3.78909   3.79268   3.79853   3.80170
 Alpha virt. eigenvalues --    3.80891   3.81387   3.81400   3.82075   3.82475
 Alpha virt. eigenvalues --    3.82539   3.84215   3.84502   3.85705   3.86149
 Alpha virt. eigenvalues --    3.86618   3.86674   3.87511   3.87728   3.88946
 Alpha virt. eigenvalues --    3.89852   3.90807   3.93160   3.94043   3.95143
 Alpha virt. eigenvalues --    3.95268   3.96735   3.97508   3.97954   4.00627
 Alpha virt. eigenvalues --    4.03011   4.03978   4.05337   4.05488   4.07313
 Alpha virt. eigenvalues --    4.08494   4.08839   4.10145   4.11683   4.13064
 Alpha virt. eigenvalues --    4.13404   4.14474   4.15143   4.16676   4.16822
 Alpha virt. eigenvalues --    4.18617   4.19703   4.20054   4.20401   4.21920
 Alpha virt. eigenvalues --    4.23865   4.24253   4.25272   4.26270   4.26887
 Alpha virt. eigenvalues --    4.27448   4.27688   4.28697   4.28913   4.29195
 Alpha virt. eigenvalues --    4.30560   4.31138   4.31331   4.32820   4.32959
 Alpha virt. eigenvalues --    4.33799   4.35640   4.36615   4.37167   4.38564
 Alpha virt. eigenvalues --    4.39644   4.41160   4.42207   4.43431   4.44007
 Alpha virt. eigenvalues --    4.47120   4.49200   4.52839   4.53071   4.56952
 Alpha virt. eigenvalues --    4.57814   4.58117   4.58180   4.61863   4.62129
 Alpha virt. eigenvalues --    4.64512   4.66255   4.66294   4.67372   4.68278
 Alpha virt. eigenvalues --    4.70113   4.71053   4.71309   4.72292   4.72665
 Alpha virt. eigenvalues --    4.73730   4.74458   4.75048   4.78048   4.78238
 Alpha virt. eigenvalues --    4.79448   4.80406   4.81383   4.81459   4.81793
 Alpha virt. eigenvalues --    4.82181   4.83780   4.86051   4.87147   4.87832
 Alpha virt. eigenvalues --    4.89028   4.91913   4.94738   4.95985   4.99541
 Alpha virt. eigenvalues --    4.99924   5.01046   5.01377   5.01655   5.02827
 Alpha virt. eigenvalues --    5.06233   5.09806   5.11395   5.12015   5.14225
 Alpha virt. eigenvalues --    5.17372   5.22547   5.22895   5.23434   5.24267
 Alpha virt. eigenvalues --    5.30551   5.30789   5.32439   5.32906   5.34388
 Alpha virt. eigenvalues --    5.36881   5.36918   5.37787   5.38586   5.39089
 Alpha virt. eigenvalues --    5.41020   5.42720   5.44005   5.44405   5.44868
 Alpha virt. eigenvalues --    5.47473   5.51226   5.53653   5.54695   5.57683
 Alpha virt. eigenvalues --    5.59994   5.61410   5.62538   5.65628   5.66135
 Alpha virt. eigenvalues --    5.70328   5.73016   5.74651   5.75632   5.81096
 Alpha virt. eigenvalues --    5.81928   5.90609   5.91159   5.93783   5.96097
 Alpha virt. eigenvalues --    6.04802   6.06275   6.10661   6.11834   6.14250
 Alpha virt. eigenvalues --    6.16775   6.29531   6.30393   6.49154   6.52364
 Alpha virt. eigenvalues --    6.56563   6.58098   6.77944   6.80605   6.86992
 Alpha virt. eigenvalues --    6.88534   6.96377   6.96438   7.05824   7.08989
 Alpha virt. eigenvalues --    7.33049   7.38217   7.53573   7.59536  22.70875
 Alpha virt. eigenvalues --   22.80025  23.21169  23.21728  23.28996  23.29398
 Alpha virt. eigenvalues --   23.32806  23.33910  23.39677  23.39815  23.41364
 Alpha virt. eigenvalues --   23.54771  24.16669  24.17545  44.60928  44.62893
          Condensed to atoms (all electrons):
               1          2          3          4          5          6
     1  C    4.785788   0.418260   0.385724   0.339729  -0.029579  -0.058247
     2  H    0.418260   0.609391  -0.016152  -0.058247  -0.002509   0.009009
     3  H    0.385724  -0.016152   0.581935  -0.029579   0.005048  -0.002509
     4  C    0.339729  -0.058247  -0.029579   4.785788   0.385724   0.418260
     5  H   -0.029579  -0.002509   0.005048   0.385724   0.581935  -0.016152
     6  H   -0.058247   0.009009  -0.002509   0.418260  -0.016152   0.609391
     7  O    0.273633  -0.037050  -0.031444  -0.064650   0.005724   0.001613
     8  O   -0.064650   0.001613   0.005724   0.273633  -0.031444  -0.037050
     9  C   -0.060425  -0.019692   0.007026   0.009160  -0.000038  -0.003413
    10  C    0.009864   0.011148  -0.002926  -0.004789  -0.000744   0.001651
    11  C   -0.007616   0.007945  -0.000321  -0.000538  -0.000044   0.000822
    12  C   -0.003480  -0.003744   0.000308   0.001422   0.000001  -0.000274
    13  C   -0.000518  -0.000934   0.000093   0.000190  -0.000002  -0.000102
    14  C    0.000368   0.000691  -0.000062  -0.000147  -0.000001   0.000065
    15  H   -0.001254   0.005067   0.000281  -0.006185   0.000412   0.001978
    16  H    0.000494   0.000382  -0.000301  -0.000337  -0.000005   0.000120
    17  H    0.000018  -0.000019  -0.000003  -0.000019  -0.000001  -0.000004
    18  H    0.000022  -0.000005   0.000000   0.000000   0.000000  -0.000001
    19  H   -0.000003   0.000003   0.000000   0.000001   0.000000   0.000000
    20  C    0.009160  -0.003413  -0.000038  -0.060425   0.007026  -0.019692
    21  C   -0.000538   0.000822  -0.000044  -0.007616  -0.000321   0.007945
    22  C   -0.004789   0.001651  -0.000744   0.009864  -0.002926   0.011148
    23  C    0.000190  -0.000102  -0.000002  -0.000518   0.000093  -0.000934
    24  C    0.001422  -0.000274   0.000001  -0.003480   0.000308  -0.003744
    25  C   -0.000147   0.000065  -0.000001   0.000368  -0.000062   0.000691
    26  H   -0.000337   0.000120  -0.000005   0.000494  -0.000301   0.000382
    27  H   -0.006185   0.001978   0.000412  -0.001254   0.000281   0.005067
    28  H    0.000000  -0.000001   0.000000   0.000022   0.000000  -0.000005
    29  H   -0.000019  -0.000004  -0.000001   0.000018  -0.000003  -0.000019
    30  H    0.000001   0.000000   0.000000  -0.000003   0.000000   0.000003
               7          8          9         10         11         12
     1  C    0.273633  -0.064650  -0.060425   0.009864  -0.007616  -0.003480
     2  H   -0.037050   0.001613  -0.019692   0.011148   0.007945  -0.003744
     3  H   -0.031444   0.005724   0.007026  -0.002926  -0.000321   0.000308
     4  C   -0.064650   0.273633   0.009160  -0.004789  -0.000538   0.001422
     5  H    0.005724  -0.031444  -0.000038  -0.000744  -0.000044   0.000001
     6  H    0.001613  -0.037050  -0.003413   0.001651   0.000822  -0.000274
     7  O    7.894067   0.006375   0.307779  -0.076806  -0.041224   0.008876
     8  O    0.006375   7.894067  -0.000107  -0.019508   0.000447  -0.001377
     9  C    0.307779  -0.000107   4.959700   0.256916   0.412588   0.076144
    10  C   -0.076806  -0.019508   0.256916   5.182239   0.063844   0.353580
    11  C   -0.041224   0.000447   0.412588   0.063844   4.951118  -0.090201
    12  C    0.008876  -0.001377   0.076144   0.353580  -0.090201   4.961671
    13  C    0.001815  -0.000124   0.000347  -0.093596   0.530626   0.003131
    14  C    0.000056   0.000190  -0.099672   0.011531  -0.016670   0.501488
    15  H   -0.004136   0.029197  -0.059756   0.426323   0.004010  -0.020938
    16  H    0.011534   0.000002  -0.063103   0.016479   0.421281  -0.004784
    17  H   -0.000196  -0.000165   0.001662  -0.016684   0.002896   0.395219
    18  H   -0.000203   0.000000   0.012317  -0.003436  -0.035845   0.009510
    19  H    0.000017   0.000001  -0.000615   0.008831   0.006094  -0.031550
    20  C   -0.000107   0.307779   0.025095   0.001771  -0.003970   0.007199
    21  C    0.000447  -0.041224  -0.003970   0.003349   0.000653  -0.001244
    22  C   -0.019508  -0.076806   0.001771  -0.012072   0.003349   0.000568
    23  C   -0.000124   0.001815   0.000697   0.001164  -0.000213   0.000405
    24  C   -0.001377   0.008876   0.007199   0.000568  -0.001244   0.000432
    25  C    0.000190   0.000056  -0.002035   0.000131   0.000497  -0.000851
    26  H    0.000002   0.011534  -0.000041  -0.000669   0.000029  -0.000009
    27  H    0.029197  -0.004136  -0.017268  -0.000210   0.001253  -0.001125
    28  H    0.000000  -0.000203   0.000011   0.000011  -0.000003   0.000009
    29  H   -0.000165  -0.000196   0.000337   0.000002   0.000276   0.000008
    30  H    0.000001   0.000017   0.000002  -0.000005  -0.000002   0.000002
              13         14         15         16         17         18
     1  C   -0.000518   0.000368  -0.001254   0.000494   0.000018   0.000022
     2  H   -0.000934   0.000691   0.005067   0.000382  -0.000019  -0.000005
     3  H    0.000093  -0.000062   0.000281  -0.000301  -0.000003   0.000000
     4  C    0.000190  -0.000147  -0.006185  -0.000337  -0.000019   0.000000
     5  H   -0.000002  -0.000001   0.000412  -0.000005  -0.000001   0.000000
     6  H   -0.000102   0.000065   0.001978   0.000120  -0.000004  -0.000001
     7  O    0.001815   0.000056  -0.004136   0.011534  -0.000196  -0.000203
     8  O   -0.000124   0.000190   0.029197   0.000002  -0.000165   0.000000
     9  C    0.000347  -0.099672  -0.059756  -0.063103   0.001662   0.012317
    10  C   -0.093596   0.011531   0.426323   0.016479  -0.016684  -0.003436
    11  C    0.530626  -0.016670   0.004010   0.421281   0.002896  -0.035845
    12  C    0.003131   0.501488  -0.020938  -0.004784   0.395219   0.009510
    13  C    4.783088   0.514714  -0.000708  -0.032346   0.002978   0.415061
    14  C    0.514714   4.846019   0.007738   0.011541  -0.024043  -0.037470
    15  H   -0.000708   0.007738   0.538911  -0.000268  -0.004844   0.000054
    16  H   -0.032346   0.011541  -0.000268   0.544351   0.000114  -0.007697
    17  H    0.002978  -0.024043  -0.004844   0.000114   0.535497  -0.000526
    18  H    0.415061  -0.037470   0.000054  -0.007697  -0.000526   0.542206
    19  H   -0.030651   0.409945  -0.000329  -0.000329  -0.003890  -0.004212
    20  C    0.000697  -0.002035  -0.017268  -0.000041   0.000337   0.000011
    21  C   -0.000213   0.000497   0.001253   0.000029   0.000276  -0.000003
    22  C    0.001164   0.000131  -0.000210  -0.000669   0.000002   0.000011
    23  C    0.000019  -0.000225  -0.000333  -0.000005   0.000044   0.000001
    24  C    0.000405  -0.000851  -0.001125  -0.000009   0.000008   0.000009
    25  C   -0.000225   0.000697   0.000780   0.000022  -0.000078  -0.000006
    26  H   -0.000005   0.000022   0.000877   0.000000  -0.000021   0.000000
    27  H   -0.000333   0.000780   0.000340   0.000877   0.000006  -0.000027
    28  H    0.000001  -0.000006  -0.000027   0.000000   0.000002   0.000000
    29  H    0.000044  -0.000078   0.000006  -0.000021   0.000000   0.000002
    30  H    0.000000   0.000002   0.000001   0.000000   0.000000   0.000000
              19         20         21         22         23         24
     1  C   -0.000003   0.009160  -0.000538  -0.004789   0.000190   0.001422
     2  H    0.000003  -0.003413   0.000822   0.001651  -0.000102  -0.000274
     3  H    0.000000  -0.000038  -0.000044  -0.000744  -0.000002   0.000001
     4  C    0.000001  -0.060425  -0.007616   0.009864  -0.000518  -0.003480
     5  H    0.000000   0.007026  -0.000321  -0.002926   0.000093   0.000308
     6  H    0.000000  -0.019692   0.007945   0.011148  -0.000934  -0.003744
     7  O    0.000017  -0.000107   0.000447  -0.019508  -0.000124  -0.001377
     8  O    0.000001   0.307779  -0.041224  -0.076806   0.001815   0.008876
     9  C   -0.000615   0.025095  -0.003970   0.001771   0.000697   0.007199
    10  C    0.008831   0.001771   0.003349  -0.012072   0.001164   0.000568
    11  C    0.006094  -0.003970   0.000653   0.003349  -0.000213  -0.001244
    12  C   -0.031550   0.007199  -0.001244   0.000568   0.000405   0.000432
    13  C   -0.030651   0.000697  -0.000213   0.001164   0.000019   0.000405
    14  C    0.409945  -0.002035   0.000497   0.000131  -0.000225  -0.000851
    15  H   -0.000329  -0.017268   0.001253  -0.000210  -0.000333  -0.001125
    16  H   -0.000329  -0.000041   0.000029  -0.000669  -0.000005  -0.000009
    17  H   -0.003890   0.000337   0.000276   0.000002   0.000044   0.000008
    18  H   -0.004212   0.000011  -0.000003   0.000011   0.000001   0.000009
    19  H    0.534905   0.000002  -0.000002  -0.000005   0.000000   0.000002
    20  C    0.000002   4.959700   0.412588   0.256916   0.000347   0.076144
    21  C   -0.000002   0.412588   4.951118   0.063844   0.530626  -0.090201
    22  C   -0.000005   0.256916   0.063844   5.182239  -0.093596   0.353580
    23  C    0.000000   0.000347   0.530626  -0.093596   4.783088   0.003131
    24  C    0.000002   0.076144  -0.090201   0.353580   0.003131   4.961671
    25  C    0.000002  -0.099672  -0.016670   0.011531   0.514714   0.501488
    26  H    0.000000  -0.063103   0.421281   0.016479  -0.032346  -0.004784
    27  H    0.000001  -0.059756   0.004010   0.426323  -0.000708  -0.020938
    28  H    0.000000   0.012317  -0.035845  -0.003436   0.415061   0.009510
    29  H    0.000000   0.001662   0.002896  -0.016684   0.002978   0.395219
    30  H    0.000000  -0.000615   0.006094   0.008831  -0.030651  -0.031550
              25         26         27         28         29         30
     1  C   -0.000147  -0.000337  -0.006185   0.000000  -0.000019   0.000001
     2  H    0.000065   0.000120   0.001978  -0.000001  -0.000004   0.000000
     3  H   -0.000001  -0.000005   0.000412   0.000000  -0.000001   0.000000
     4  C    0.000368   0.000494  -0.001254   0.000022   0.000018  -0.000003
     5  H   -0.000062  -0.000301   0.000281   0.000000  -0.000003   0.000000
     6  H    0.000691   0.000382   0.005067  -0.000005  -0.000019   0.000003
     7  O    0.000190   0.000002   0.029197   0.000000  -0.000165   0.000001
     8  O    0.000056   0.011534  -0.004136  -0.000203  -0.000196   0.000017
     9  C   -0.002035  -0.000041  -0.017268   0.000011   0.000337   0.000002
    10  C    0.000131  -0.000669  -0.000210   0.000011   0.000002  -0.000005
    11  C    0.000497   0.000029   0.001253  -0.000003   0.000276  -0.000002
    12  C   -0.000851  -0.000009  -0.001125   0.000009   0.000008   0.000002
    13  C   -0.000225  -0.000005  -0.000333   0.000001   0.000044   0.000000
    14  C    0.000697   0.000022   0.000780  -0.000006  -0.000078   0.000002
    15  H    0.000780   0.000877   0.000340  -0.000027   0.000006   0.000001
    16  H    0.000022   0.000000   0.000877   0.000000  -0.000021   0.000000
    17  H   -0.000078  -0.000021   0.000006   0.000002   0.000000   0.000000
    18  H   -0.000006   0.000000  -0.000027   0.000000   0.000002   0.000000
    19  H    0.000002   0.000000   0.000001   0.000000   0.000000   0.000000
    20  C   -0.099672  -0.063103  -0.059756   0.012317   0.001662  -0.000615
    21  C   -0.016670   0.421281   0.004010  -0.035845   0.002896   0.006094
    22  C    0.011531   0.016479   0.426323  -0.003436  -0.016684   0.008831
    23  C    0.514714  -0.032346  -0.000708   0.415061   0.002978  -0.030651
    24  C    0.501488  -0.004784  -0.020938   0.009510   0.395219  -0.031550
    25  C    4.846019   0.011541   0.007738  -0.037470  -0.024043   0.409945
    26  H    0.011541   0.544351  -0.000268  -0.007697   0.000114  -0.000329
    27  H    0.007738  -0.000268   0.538911   0.000054  -0.004844  -0.000329
    28  H   -0.037470  -0.007697   0.000054   0.542206  -0.000526  -0.004212
    29  H   -0.024043   0.000114  -0.004844  -0.000526   0.535497  -0.003890
    30  H    0.409945  -0.000329  -0.000329  -0.004212  -0.003890   0.534905
 Mulliken charges:
               1
     1  C    0.013114
     2  H    0.074003
     3  H    0.097580
     4  C    0.013114
     5  H    0.097580
     6  H    0.074003
     7  O   -0.264338
     8  O   -0.264338
     9  C    0.251383
    10  C   -0.117959
    11  C   -0.209839
    12  C   -0.160395
    13  C   -0.094617
    14  C   -0.125215
    15  H    0.100152
    16  H    0.102690
    17  H    0.111430
    18  H    0.110226
    19  H    0.111783
    20  C    0.251383
    21  C   -0.209839
    22  C   -0.117959
    23  C   -0.094617
    24  C   -0.160395
    25  C   -0.125215
    26  H    0.102690
    27  H    0.100152
    28  H    0.110226
    29  H    0.111430
    30  H    0.111783
 Sum of Mulliken charges =   0.00000
 Mulliken charges with hydrogens summed into heavy atoms:
               1
     1  C    0.184698
     4  C    0.184698
     7  O   -0.264338
     8  O   -0.264338
     9  C    0.251383
    10  C   -0.017807
    11  C   -0.107149
    12  C   -0.048965
    13  C    0.015609
    14  C   -0.013432
    20  C    0.251383
    21  C   -0.107149
    22  C   -0.017807
    23  C    0.015609
    24  C   -0.048965
    25  C   -0.013432
 Electronic spatial extent (au):  <R**2>=           3424.6843
 Charge=              0.0000 electrons
 Dipole moment (field-independent basis, Debye):
    X=              0.0000    Y=              0.0000    Z=              1.1645  Tot=              1.1645
 Quadrupole moment (field-independent basis, Debye-Ang):
   XX=            -90.3335   YY=            -97.0535   ZZ=            -83.1797
   XY=              3.2955   XZ=              0.0000   YZ=              0.0000
 Traceless Quadrupole moment (field-independent basis, Debye-Ang):
   XX=             -0.1446   YY=             -6.8646   ZZ=              7.0092
   XY=              3.2955   XZ=              0.0000   YZ=              0.0000
 Octapole moment (field-independent basis, Debye-Ang**2):
  XXX=              0.0000  YYY=              0.0000  ZZZ=             37.6913  XYY=              0.0000
  XXY=              0.0000  XXZ=            -10.9098  XZZ=              0.0000  YZZ=              0.0000
  YYZ=             -8.0585  XYZ=              7.5344
 Hexadecapole moment (field-independent basis, Debye-Ang**3):
 XXXX=          -1224.6823 YYYY=          -2050.6439 ZZZZ=          -1353.8884 XXXY=            458.7647
 XXXZ=              0.0000 YYYX=            542.9792 YYYZ=              0.0000 ZZZX=              0.0000
 ZZZY=              0.0000 XXYY=           -545.7191 XXZZ=           -451.0852 YYZZ=           -504.4843
 XXYZ=              0.0000 YYXZ=              0.0000 ZZXY=            138.7026
 N-N= 1.066452495660D+03 E-N=-3.744560600397D+03  KE= 6.885890374340D+02
 Symmetry A    KE= 3.454450796267D+02
 Symmetry B    KE= 3.431439578073D+02
 No NMR shielding tensors so no spin-rotation constants.
 Leave Link  601 at Fri May 17 10:23:13 2024, MaxMem=  6291456000 cpu:        71.5
 (Enter /home/madghost/g09/l607.exe)
 ******************************Gaussian NBO Version 3.1******************************
             N A T U R A L   A T O M I C   O R B I T A L   A N D
          N A T U R A L   B O N D   O R B I T A L   A N A L Y S I S
 ******************************Gaussian NBO Version 3.1******************************

       /RESON  / : Allow strongly delocalized NBO set
       /E2PERT / : Analyze NBO Fock matrix
                   Print threshold set to  0.05
       /PLOT   / : Write information for the orbital plotter
       /ARCHIVE/ : Write the archive file to LFN 47
       /BNDIDX / : Print bond indices based on the NAO density matrix
       /FILE   / : Set to JOB1                                                

 Analyzing the SCF density

 Job title: H12                                                             

 Storage needed:   1440014 in NPA,   1918463 in NBO,   1440952 in NLMO (6291451200 available)


 NATURAL POPULATIONS:  Natural atomic orbital occupancies 
                                                          
   NAO  Atom  No  lang   Type(AO)    Occupancy      Energy
 ----------------------------------------------------------
     1    C    1  S      Cor( 1S)     1.99922     -10.15829
     2    C    1  S      Val( 2S)     1.03809      -0.30898
     3    C    1  S      Ryd( 3S)     0.00305       1.23836
     4    C    1  S      Ryd( 4S)     0.00016       2.54411
     5    C    1  S      Ryd( 5S)     0.00000      21.52254
     6    C    1  px     Val( 2p)     0.96483      -0.10802
     7    C    1  px     Ryd( 3p)     0.00390       1.09525
     8    C    1  px     Ryd( 4p)     0.00028       1.62511
     9    C    1  py     Val( 2p)     1.11927      -0.12505
    10    C    1  py     Ryd( 3p)     0.00087       1.00060
    11    C    1  py     Ryd( 4p)     0.00010       1.53367
    12    C    1  pz     Val( 2p)     0.97242      -0.11766
    13    C    1  pz     Ryd( 3p)     0.00195       1.14509
    14    C    1  pz     Ryd( 4p)     0.00056       1.52214
    15    C    1  dxy    Ryd( 3d)     0.00207       1.76967
    16    C    1  dxy    Ryd( 4d)     0.00020       3.49773
    17    C    1  dxz    Ryd( 3d)     0.00118       1.94241
    18    C    1  dxz    Ryd( 4d)     0.00027       3.69135
    19    C    1  dyz    Ryd( 3d)     0.00079       1.53475
    20    C    1  dyz    Ryd( 4d)     0.00025       3.03083
    21    C    1  dx2y2  Ryd( 3d)     0.00055       1.62165
    22    C    1  dx2y2  Ryd( 4d)     0.00027       3.19814
    23    C    1  dz2    Ryd( 3d)     0.00213       1.69879
    24    C    1  dz2    Ryd( 4d)     0.00010       3.36066
    25    C    1  f(0)   Ryd( 4f)     0.00002       3.84187
    26    C    1  f(C1)  Ryd( 4f)     0.00010       4.11038
    27    C    1  f(S1)  Ryd( 4f)     0.00003       3.79611
    28    C    1  f(C2)  Ryd( 4f)     0.00004       3.83369
    29    C    1  f(S2)  Ryd( 4f)     0.00004       3.94075
    30    C    1  f(C3)  Ryd( 4f)     0.00008       3.93049
    31    C    1  f(S3)  Ryd( 4f)     0.00002       3.89304

    32    H    2  S      Val( 1S)     0.80630      -0.01365
    33    H    2  S      Ryd( 2S)     0.00106       1.12056
    34    H    2  S      Ryd( 3S)     0.00011       1.58143
    35    H    2  px     Ryd( 3p)     0.00017       3.92814
    36    H    2  px     Ryd( 2p)     0.00012       2.49641
    37    H    2  py     Ryd( 3p)     0.00042       4.21556
    38    H    2  py     Ryd( 2p)     0.00007       2.80066
    39    H    2  pz     Ryd( 3p)     0.00008       3.73580
    40    H    2  pz     Ryd( 2p)     0.00012       2.37250
    41    H    2  dxy    Ryd( 3d)     0.00004       4.39557
    42    H    2  dxz    Ryd( 3d)     0.00003       3.84746
    43    H    2  dyz    Ryd( 3d)     0.00002       3.97424
    44    H    2  dx2y2  Ryd( 3d)     0.00005       4.16126
    45    H    2  dz2    Ryd( 3d)     0.00004       3.86616

    46    H    3  S      Val( 1S)     0.79971      -0.01296
    47    H    3  S      Ryd( 2S)     0.00071       0.97499
    48    H    3  S      Ryd( 3S)     0.00011       1.61583
    49    H    3  px     Ryd( 3p)     0.00014       3.97204
    50    H    3  px     Ryd( 2p)     0.00010       2.31767
    51    H    3  py     Ryd( 3p)     0.00000       3.90581
    52    H    3  py     Ryd( 2p)     0.00020       1.96731
    53    H    3  pz     Ryd( 3p)     0.00054       4.15272
    54    H    3  pz     Ryd( 2p)     0.00004       3.02897
    55    H    3  dxy    Ryd( 3d)     0.00002       3.77963
    56    H    3  dxz    Ryd( 3d)     0.00008       4.36030
    57    H    3  dyz    Ryd( 3d)     0.00004       3.95817
    58    H    3  dx2y2  Ryd( 3d)     0.00002       3.73564
    59    H    3  dz2    Ryd( 3d)     0.00006       4.32880

    60    C    4  S      Cor( 1S)     1.99922     -10.15829
    61    C    4  S      Val( 2S)     1.03809      -0.30898
    62    C    4  S      Ryd( 3S)     0.00305       1.23836
    63    C    4  S      Ryd( 4S)     0.00016       2.54411
    64    C    4  S      Ryd( 5S)     0.00000      21.52254
    65    C    4  px     Val( 2p)     0.96483      -0.10802
    66    C    4  px     Ryd( 3p)     0.00390       1.09525
    67    C    4  px     Ryd( 4p)     0.00028       1.62511
    68    C    4  py     Val( 2p)     1.11927      -0.12505
    69    C    4  py     Ryd( 3p)     0.00087       1.00060
    70    C    4  py     Ryd( 4p)     0.00010       1.53367
    71    C    4  pz     Val( 2p)     0.97242      -0.11766
    72    C    4  pz     Ryd( 3p)     0.00195       1.14509
    73    C    4  pz     Ryd( 4p)     0.00056       1.52214
    74    C    4  dxy    Ryd( 3d)     0.00207       1.76967
    75    C    4  dxy    Ryd( 4d)     0.00020       3.49773
    76    C    4  dxz    Ryd( 3d)     0.00118       1.94241
    77    C    4  dxz    Ryd( 4d)     0.00027       3.69135
    78    C    4  dyz    Ryd( 3d)     0.00079       1.53475
    79    C    4  dyz    Ryd( 4d)     0.00025       3.03083
    80    C    4  dx2y2  Ryd( 3d)     0.00055       1.62165
[...]
   20      25      29    -0.0031844      -0.0528872
   20      25      30     0.0038253       0.1820310
   20      25      31    -0.0030204      -0.0690168
   20      25      33     0.0035254       0.0290742
   20      25      35    -0.0661718      -0.0461099
   20      25      36     0.0038619       0.0310307
   20      25      57     0.0117406       0.0398455
   20      26      25    -0.0023793      -0.1269681
   20      26      29     0.0074666       0.0202432
   20      27      24    -0.0026065      -0.1164116
   20      27      31     0.0065916       0.0634262
   20      28      24     0.0024426       0.0506172
   20      28      33    -0.0035254      -0.0146859
   20      29      25     0.0024076       0.0565990
   20      29      36    -0.0038619      -0.0135593
   20      30      27     0.0026015       0.0554856
   20      30      30     0.0026612       0.0453103
   21      22      24     0.0035943       0.2372151
   21      22      25     0.0040428       0.1594924
   21      22      26     0.0723639       0.1216383
   21      22      28    -0.0403260      -0.0721161
   21      22      29    -0.0037517      -0.0563000
   21      22      31    -0.0034954      -0.0751328
   21      22      35    -0.0514884      -0.0865483
   21      22      37    -0.0031895      -0.0828628
   21      22      56    -0.0025573      -0.3520478
   21      22      57     0.0183614       0.0603074
   21      23      24     0.0037678       0.2845951
   21      23      26    -0.0675591      -0.3665657
   21      23      27     0.9807118       0.8078944
   21      23      28     0.7714505       0.4057251
   21      23      29     0.0060111       0.1332546
   21      23      32     0.0042782       0.3177390
   21      23      33     0.0060362       0.1763022
   21      23      35    -0.0514884      -0.3533456
   21      23      37    -0.0031895      -0.4239244
   21      24      25     0.0040428       0.1716141
   21      24      26     0.0723639       0.0753324
   21      24      28    -0.0664428      -0.0414952
   21      24      31    -0.0034954      -0.0741840
   21      24      32     0.0041234       0.2371462
   21      24      33    -0.0030544      -0.0570839
   21      24      35    -0.0514884      -0.0387095
   21      24      37    -0.0031895      -0.0571473
   21      25      26    -0.0519235      -0.0801823
   21      25      27     0.0038458       0.2293057
   21      25      28     0.0675384       0.1152806
   21      25      29    -0.0031844      -0.0640990
   21      25      31    -0.0030204      -0.0610364
   21      25      32     0.0042782       0.2215102
   21      25      33     0.0057046       0.2959872
   21      25      35    -0.0514884      -0.0698749
   21      25      37    -0.0031895      -0.0719450
   21      25      57    -0.0117406      -0.0569864
   21      26      25    -0.0023793      -0.4924307
   21      26      29     0.7659650       0.8082253
   21      26      32    -0.0028683      -0.5188361
   21      27      24     0.0026065       0.0002761
   21      27      31     0.0034954       0.0070740
   21      28      24    -0.0024426      -0.1173864
   21      28      33     0.0060362       0.0431598
   21      29      25     0.0024076       0.0528227
   21      29      32     0.0028254       0.0708140
   21      30      27     0.0026015       0.0635100
   21      30      37     0.0031895       0.0005487
   22      23      24     0.0035943       0.2102156
   22      23      26    -0.0675591      -0.0438061
   22      23      28    -0.0403260      -0.0398049
   22      23      29    -0.0037517      -0.0629025
   22      23      34     0.0040294       0.2289590
   22      23      35     0.0646423       0.0775412
   22      23      36    -0.0032042      -0.0605930
   22      23      37    -0.0033607      -0.0617898
   22      24      25     0.0041834       0.2750516
   22      24      26     0.1584750       0.4254391
   22      24      28     0.0403260       0.3308745
   22      24      30     0.9776113       0.8036251
   22      24      31     0.0052550       0.2458300
   22      24      34     0.0040310       0.3078679
   22      24      35     0.0646423       0.4321452
   22      24      36     0.0060909       0.1813439
   22      24      37    -0.0033607      -0.4276737
   22      25      26    -0.0519235      -0.0698732
   22      25      28    -0.0403260      -0.0852390
   22      25      29    -0.0031844      -0.0590834
   22      25      30     0.0038253       0.2324559
   22      25      31    -0.0030204      -0.0684463
   22      25      34     0.0040310       0.2256686
   22      25      35     0.0646423       0.1185545
   22      25      36     0.0058319       0.3056987
   22      25      37    -0.0033607      -0.0773755
   22      25      57    -0.0117406      -0.0595082
   22      26      25    -0.0023793      -0.0015187
   22      26      29     0.0037517       0.0031026
   22      27      24    -0.0026065      -0.5078212
   22      27      31     0.7580571       0.8134678
   22      27      34    -0.0027052      -0.5089949
   22      28      24     0.0024426       0.0526062
   22      28      34     0.0027828       0.0688193
   22      29      25    -0.0024076      -0.1222451
   22      29      36     0.0060909       0.0517012
   22      30      30     0.0026612       0.0654428
   22      30      37    -0.0033607      -0.0011737
   23      24      26    -0.0675591      -0.0879049
   23      24      28    -0.0664428      -0.0793964
   23      24      32     0.0041234       0.2408278
   23      24      33    -0.0030544      -0.0753807
   23      24      34     0.0040294       0.2343993
   23      24      35     0.1505196       0.1153602
   23      24      36    -0.0032042      -0.0746777
   23      24      37     0.0058917       0.2834314
   23      25      26     0.0519235       0.3290312
   23      25      27     0.0038458       0.3356010
   23      25      28     0.0675384       0.4314734
   23      25      29    -0.0031844      -0.4229885
   23      25      32     0.9898213       0.8062982
   23      25      33     0.0057046       0.1562252
   23      25      34     0.0040294       0.3264298
   23      25      35     0.1505196       0.4194117
   23      25      36    -0.0032042      -0.4378677
   23      25      37     0.0058917       0.1422659
   23      26      29     0.0060111       0.0258809
   23      26      32    -0.0028683      -0.1143753
   23      27      24     0.0026065       0.0101979
   23      27      34     0.0027052       0.0259069
   23      28      24    -0.0024426      -0.5653346
   23      28      33     0.7750234       0.8105721
   23      28      34    -0.0027828      -0.5736871
   23      29      32     0.0028254       0.0659729
   23      29      36    -0.0032042      -0.0036093
   23      30      27    -0.0026015      -0.1168165
   23      30      37     0.0058917       0.0178766
   24      25      26    -0.0519235      -0.3449821
   24      25      28    -0.0664428      -0.3742615
   24      25      30     0.0038253       0.3287082
   24      25      31    -0.0030204      -0.3944964
   24      25      32     0.0041234       0.3389470
   24      25      33    -0.0030544      -0.4203060
   24      25      34     0.9900152       0.8069567
   24      25      35     0.7598090       0.4074158
   24      25      36     0.0058319       0.1562963
   24      25      37     0.0062521       0.1530920
   24      26      25     0.0023793       0.0089144
   24      26      32     0.0028683       0.0232859
   24      27      31     0.0052550       0.1027666
   24      27      34    -0.0027052      -0.1170954
   24      28      33    -0.0030544      -0.0023576
   24      28      34     0.0027828       0.0657471
   24      29      25    -0.0024076      -0.5443087
   24      29      32    -0.0028254      -0.5682490
   24      29      36     0.7746545       0.8099195
   24      30      30    -0.0026612      -0.1177448
   24      30      37     0.0062521       0.0275285
   25      26      29     0.0031844       0.0039512
   25      26      32     0.0028683       0.0099293
   25      27      31     0.0030204       0.0069361
   25      27      34     0.0027052       0.0138980
   25      28      33     0.0057046       0.0245297
   25      28      34    -0.0027828      -0.1140723
   25      29      32    -0.0028254      -0.1152489
   25      29      36     0.0058319       0.0223727
   25      30      27    -0.0026015      -0.5746357
   25      30      30    -0.0026612      -0.5774159
   25      30      37     0.7741263       0.8110675
   26      29      25    -0.0023793      -0.0010925
   26      29      32    -0.0028254      -0.0006087
   27      28      24    -0.0024426      -0.0007930
   27      28      34    -0.0027052      -0.0004427


 Atom-Atom Net Linear NLMO/NPA Bond Orders:                                    

     Atom    1       2       3       4       5       6       7       8       9
     ---- ------  ------  ------  ------  ------  ------  ------  ------  ------
   1.  C  0.0000  0.7764  0.7772  1.0054  0.0054 -0.0035  0.6843 -0.0164  0.0193
   2.  H  0.7764  0.0000  0.0000 -0.0035 -0.0017 -0.0078 -0.0146  0.0000 -0.0103
   3.  H  0.7772  0.0000  0.0000  0.0054 -0.0031 -0.0017 -0.0126  0.0021  0.0055
   4.  C  1.0054 -0.0035  0.0054  0.0000  0.7772  0.7764 -0.0164  0.6843 -0.0119
   5.  H  0.0054 -0.0017 -0.0031  0.7772  0.0000  0.0000  0.0021 -0.0126 -0.0013
   6.  H -0.0035 -0.0078 -0.0017  0.7764  0.0000  0.0000  0.0000 -0.0146  0.0006
   7.  O  0.6843 -0.0146 -0.0126 -0.0164  0.0021  0.0000  0.0000  0.0054  0.7313
   8.  O -0.0164  0.0000  0.0021  0.6843 -0.0126 -0.0146  0.0054  0.0000  0.0030
   9.  C  0.0193 -0.0103  0.0055 -0.0119 -0.0013  0.0006  0.7313  0.0030  0.0000
  10.  C -0.0260 -0.0023  0.0014  0.0085  0.0018 -0.0016 -0.0372 -0.0007  1.5640
  11.  C -0.0052 -0.0077 -0.0019  0.0123  0.0007  0.0005 -0.0337 -0.0005  1.2358
  12.  C -0.0007 -0.0015 -0.0010  0.0015  0.0006  0.0000  0.0060 -0.0005  0.0334
  13.  C -0.0084 -0.0005  0.0000  0.0002  0.0008 -0.0004  0.0101 -0.0004  0.0215
  14.  C  0.0096  0.0057  0.0039 -0.0096 -0.0011  0.0002  0.0223 -0.0001 -0.0299
  15.  H -0.0054 -0.0023  0.0004 -0.0005  0.0000 -0.0015  0.0021  0.0011  0.0031
  16.  H  0.0012  0.0000  0.0007  0.0003 -0.0002  0.0003 -0.0004  0.0001  0.0037
  17.  H  0.0012 -0.0002  0.0005 -0.0002  0.0000 -0.0002 -0.0008 -0.0001  0.0011
  18.  H -0.0028 -0.0003  0.0000  0.0001 -0.0003  0.0001 -0.0023 -0.0001  0.0014
  19.  H  0.0006  0.0001  0.0001 -0.0001  0.0000 -0.0001  0.0055  0.0001  0.0067
  20.  C -0.0119  0.0006 -0.0013  0.0193  0.0055 -0.0103  0.0030  0.7313  0.0018
  21.  C  0.0123  0.0005  0.0007 -0.0052 -0.0019 -0.0077 -0.0005 -0.0337 -0.0003
  22.  C  0.0085 -0.0016  0.0018 -0.0260  0.0014 -0.0023 -0.0007 -0.0372  0.0011
  23.  C  0.0002 -0.0004  0.0008 -0.0084  0.0000 -0.0005 -0.0004  0.0101  0.0006
  24.  C  0.0015  0.0000  0.0006 -0.0007 -0.0010 -0.0015 -0.0005  0.0060 -0.0006
  25.  C -0.0096  0.0002 -0.0011  0.0096  0.0039  0.0057 -0.0001  0.0223  0.0009
  26.  H  0.0003  0.0003 -0.0002  0.0012  0.0007  0.0000  0.0001 -0.0004 -0.0002
  27.  H -0.0005 -0.0015  0.0000 -0.0054  0.0004 -0.0023  0.0011  0.0021 -0.0002
  28.  H  0.0001  0.0001 -0.0003 -0.0028  0.0000 -0.0003 -0.0001 -0.0023  0.0001
  29.  H -0.0002 -0.0002  0.0000  0.0012  0.0005 -0.0002 -0.0001 -0.0008 -0.0002
  30.  H -0.0001 -0.0001  0.0000  0.0006  0.0001  0.0001  0.0001  0.0055  0.0000

     Atom   10      11      12      13      14      15      16      17      18
     ---- ------  ------  ------  ------  ------  ------  ------  ------  ------
   1.  C -0.0260 -0.0052 -0.0007 -0.0084  0.0096 -0.0054  0.0012  0.0012 -0.0028
   2.  H -0.0023 -0.0077 -0.0015 -0.0005  0.0057 -0.0023  0.0000 -0.0002 -0.0003
   3.  H  0.0014 -0.0019 -0.0010  0.0000  0.0039  0.0004  0.0007  0.0005  0.0000
   4.  C  0.0085  0.0123  0.0015  0.0002 -0.0096 -0.0005  0.0003 -0.0002  0.0001
   5.  H  0.0018  0.0007  0.0006  0.0008 -0.0011  0.0000 -0.0002  0.0000 -0.0003
   6.  H -0.0016  0.0005  0.0000 -0.0004  0.0002 -0.0015  0.0003 -0.0002  0.0001
   7.  O -0.0372 -0.0337  0.0060  0.0101  0.0223  0.0021 -0.0004 -0.0008 -0.0023
   8.  O -0.0007 -0.0005 -0.0005 -0.0004 -0.0001  0.0011  0.0001 -0.0001 -0.0001
   9.  C  1.5640  1.2358  0.0334  0.0215 -0.0299  0.0031  0.0037  0.0011  0.0014
  10.  C  0.0000 -0.0064  1.2539 -0.0458 -0.0364  0.7498  0.0032  0.0021  0.0067
  11.  C -0.0064  0.0000 -0.0469  1.6482 -0.0438  0.0093  0.7597  0.0069  0.0028
  12.  C  1.2539 -0.0469  0.0000  0.0238  1.6436  0.0008  0.0070  0.7679  0.0014
  13.  C -0.0458  1.6482  0.0238  0.0000  1.2705  0.0059  0.0028  0.0010  0.7684
  14.  C -0.0364 -0.0438  1.6436  1.2705  0.0000  0.0085  0.0090  0.0011  0.0011
  15.  H  0.7498  0.0093  0.0008  0.0059  0.0085  0.0000  0.0000 -0.0018 -0.0056
  16.  H  0.0032  0.7597  0.0070  0.0028  0.0090  0.0000  0.0000 -0.0057 -0.0029
  17.  H  0.0021  0.0069  0.7679  0.0010  0.0011 -0.0018 -0.0057  0.0000 -0.0029
  18.  H  0.0067  0.0028  0.0014  0.7684  0.0011 -0.0056 -0.0029 -0.0029  0.0000
  19.  H  0.0012  0.0073  0.0028  0.0026  0.7676  0.0015  0.0014 -0.0032 -0.0033
  20.  C  0.0011 -0.0003 -0.0006  0.0006  0.0009 -0.0002 -0.0002 -0.0002  0.0001
  21.  C  0.0000 -0.0001 -0.0006  0.0003  0.0000 -0.0001 -0.0001 -0.0001  0.0001
  22.  C  0.0000  0.0000 -0.0002 -0.0008  0.0005  0.0000  0.0003  0.0000  0.0001
  23.  C -0.0008  0.0003 -0.0001  0.0000 -0.0001 -0.0012  0.0000 -0.0001  0.0000
  24.  C -0.0002 -0.0006 -0.0007 -0.0001  0.0004  0.0000 -0.0001  0.0000  0.0001
  25.  C  0.0005  0.0000  0.0004 -0.0001  0.0004  0.0002 -0.0001 -0.0001  0.0001
  26.  H  0.0003 -0.0001 -0.0001  0.0000 -0.0001  0.0001  0.0000  0.0000  0.0000
  27.  H  0.0000 -0.0001  0.0000 -0.0012  0.0002  0.0013  0.0001 -0.0003  0.0000
  28.  H  0.0001  0.0001  0.0001  0.0000  0.0001  0.0000  0.0000  0.0000  0.0000
  29.  H  0.0000 -0.0001  0.0000 -0.0001 -0.0001 -0.0003  0.0000  0.0000  0.0000
  30.  H  0.0003 -0.0001  0.0000 -0.0001 -0.0001  0.0000  0.0000  0.0000  0.0000

     Atom   19      20      21      22      23      24      25      26      27
     ---- ------  ------  ------  ------  ------  ------  ------  ------  ------
   1.  C  0.0006 -0.0119  0.0123  0.0085  0.0002  0.0015 -0.0096  0.0003 -0.0005
   2.  H  0.0001  0.0006  0.0005 -0.0016 -0.0004  0.0000  0.0002  0.0003 -0.0015
   3.  H  0.0001 -0.0013  0.0007  0.0018  0.0008  0.0006 -0.0011 -0.0002  0.0000
   4.  C -0.0001  0.0193 -0.0052 -0.0260 -0.0084 -0.0007  0.0096  0.0012 -0.0054
   5.  H  0.0000  0.0055 -0.0019  0.0014  0.0000 -0.0010  0.0039  0.0007  0.0004
   6.  H -0.0001 -0.0103 -0.0077 -0.0023 -0.0005 -0.0015  0.0057  0.0000 -0.0023
   7.  O  0.0055  0.0030 -0.0005 -0.0007 -0.0004 -0.0005 -0.0001  0.0001  0.0011
   8.  O  0.0001  0.7313 -0.0337 -0.0372  0.0101  0.0060  0.0223 -0.0004  0.0021
   9.  C  0.0067  0.0018 -0.0003  0.0011  0.0006 -0.0006  0.0009 -0.0002 -0.0002
  10.  C  0.0012  0.0011  0.0000  0.0000 -0.0008 -0.0002  0.0005  0.0003  0.0000
  11.  C  0.0073 -0.0003 -0.0001  0.0000  0.0003 -0.0006  0.0000 -0.0001 -0.0001
  12.  C  0.0028 -0.0006 -0.0006 -0.0002 -0.0001 -0.0007  0.0004 -0.0001  0.0000
  13.  C  0.0026  0.0006  0.0003 -0.0008  0.0000 -0.0001 -0.0001  0.0000 -0.0012
  14.  C  0.7676  0.0009  0.0000  0.0005 -0.0001  0.0004  0.0004 -0.0001  0.0002
  15.  H  0.0015 -0.0002 -0.0001  0.0000 -0.0012  0.0000  0.0002  0.0001  0.0013
  16.  H  0.0014 -0.0002 -0.0001  0.0003  0.0000 -0.0001 -0.0001  0.0000  0.0001
  17.  H -0.0032 -0.0002 -0.0001  0.0000 -0.0001  0.0000 -0.0001  0.0000 -0.0003
  18.  H -0.0033  0.0001  0.0001  0.0001  0.0000  0.0001  0.0001  0.0000  0.0000
  19.  H  0.0000  0.0000 -0.0001  0.0003 -0.0001  0.0000 -0.0001  0.0000  0.0000
  20.  C  0.0000  0.0000  1.2358  1.5640  0.0215  0.0334 -0.0299  0.0037  0.0031
  21.  C -0.0001  1.2358  0.0000 -0.0064  1.6482 -0.0469 -0.0438  0.7597  0.0093
  22.  C  0.0003  1.5640 -0.0064  0.0000 -0.0458  1.2539 -0.0364  0.0032  0.7498
  23.  C -0.0001  0.0215  1.6482 -0.0458  0.0000  0.0238  1.2705  0.0028  0.0059
  24.  C  0.0000  0.0334 -0.0469  1.2539  0.0238  0.0000  1.6436  0.0070  0.0008
  25.  C -0.0001 -0.0299 -0.0438 -0.0364  1.2705  1.6436  0.0000  0.0090  0.0085
  26.  H  0.0000  0.0037  0.7597  0.0032  0.0028  0.0070  0.0090  0.0000  0.0000
  27.  H  0.0000  0.0031  0.0093  0.7498  0.0059  0.0008  0.0085  0.0000  0.0000
  28.  H  0.0000  0.0014  0.0028  0.0067  0.7684  0.0014  0.0011 -0.0029 -0.0056
  29.  H  0.0000  0.0011  0.0069  0.0021  0.0010  0.7679  0.0011 -0.0057 -0.0018
  30.  H  0.0000  0.0067  0.0073  0.0012  0.0026  0.0028  0.7676  0.0014  0.0015

     Atom   28      29      30
     ---- ------  ------  ------
   1.  C  0.0001 -0.0002 -0.0001
   2.  H  0.0001 -0.0002 -0.0001
   3.  H -0.0003  0.0000  0.0000
   4.  C -0.0028  0.0012  0.0006
   5.  H  0.0000  0.0005  0.0001
   6.  H -0.0003 -0.0002  0.0001
   7.  O -0.0001 -0.0001  0.0001
   8.  O -0.0023 -0.0008  0.0055
   9.  C  0.0001 -0.0002  0.0000
  10.  C  0.0001  0.0000  0.0003
  11.  C  0.0001 -0.0001 -0.0001
  12.  C  0.0001  0.0000  0.0000
  13.  C  0.0000 -0.0001 -0.0001
  14.  C  0.0001 -0.0001 -0.0001
  15.  H  0.0000 -0.0003  0.0000
  16.  H  0.0000  0.0000  0.0000
  17.  H  0.0000  0.0000  0.0000
  18.  H  0.0000  0.0000  0.0000
  19.  H  0.0000  0.0000  0.0000
  20.  C  0.0014  0.0011  0.0067
  21.  C  0.0028  0.0069  0.0073
  22.  C  0.0067  0.0021  0.0012
  23.  C  0.7684  0.0010  0.0026
  24.  C  0.0014  0.7679  0.0028
  25.  C  0.0011  0.0011  0.7676
  26.  H -0.0029 -0.0057  0.0014
  27.  H -0.0056 -0.0018  0.0015
  28.  H  0.0000 -0.0029 -0.0033
  29.  H -0.0029  0.0000 -0.0032
  30.  H -0.0033 -0.0032  0.0000


 Linear NLMO/NPA Bond Orders, Totals by Atom:                                  

     Atom    1
     ---- ------
   1.  C  3.2129
   2.  H  0.7274
   3.  H  0.7777
   4.  C  3.2129
   5.  H  0.7777
   6.  H  0.7274
   7.  O  1.3528
   8.  O  1.3528
   9.  C  3.5800
  10.  C  3.4377
  11.  C  3.5363
  12.  C  3.6902
  13.  C  3.6990
  14.  C  3.6244
  15.  H  0.7653
  16.  H  0.7803
  17.  H  0.7662
  18.  H  0.7620
  19.  H  0.7908
  20.  C  3.5800
  21.  C  3.5363
  22.  C  3.4377
  23.  C  3.6990
  24.  C  3.6902
  25.  C  3.6244
  26.  H  0.7803
  27.  H  0.7653
  28.  H  0.7620
  29.  H  0.7662
  30.  H  0.7908
 Leave Link  607 at Fri May 17 10:23:50 2024, MaxMem=  6291456000 cpu:       876.7
 (Enter /home/madghost/g09/l9999.exe)
 1\1\GINC-NODE-3\SP\RPBE1PBE\Gen\C14H14O2\NATALYA\17-May-2024\0\\#P PBE
 1PBE/GEN pop=nboread\\H12\\0,1\C,0,-0.290854,0.698377,2.592092\H,0,0.5
 07699,1.444522,2.543415\H,0,-0.815114,0.831818,3.543595\C,0,0.290854,-
 0.698377,2.592092\H,0,0.815114,-0.831818,3.543595\H,0,-0.507699,-1.444
 522,2.543415\O,0,-1.258695,0.9267,1.59101\O,0,1.258695,-0.9267,1.59101
 \C,0,-0.91149,1.54745,0.431281\C,0,0.394,1.733254,-0.005852\C,0,-1.974
 922,1.985962,-0.352263\C,0,0.62159,2.367249,-1.219953\C,0,-1.732306,2.
 610106,-1.561562\C,0,-0.430587,2.809413,-2.00325\H,0,1.230561,1.356311
 ,0.566209\H,0,-2.984252,1.827439,0.008228\H,0,1.643007,2.499768,-1.558
 013\H,0,-2.568786,2.947285,-2.163143\H,0,-0.241277,3.297736,-2.951322\
 C,0,0.91149,-1.54745,0.431281\C,0,1.974922,-1.985962,-0.352263\C,0,-0.
 394,-1.733254,-0.005852\C,0,1.732306,-2.610106,-1.561562\C,0,-0.62159,
 -2.367249,-1.219953\C,0,0.430587,-2.809413,-2.00325\H,0,2.984252,-1.82
 7439,0.008228\H,0,-1.230561,-1.356311,0.566209\H,0,2.568786,-2.947285,
 -2.163143\H,0,-1.643007,-2.499768,-1.558013\H,0,0.241277,-3.297736,-2.
 951322\\Version=EM64L-G09RevD.01\State=1-A\HF=-691.7907182\RMSD=9.886e
 -09\Dipole=0.,0.,0.4581659\Quadrupole=0.747256,-5.9584326,5.2111766,1.
 0009717,0.,0.\PG=C02 [X(C14H14O2)]\\@


 LENDING MONEY TO FRIENDS CAUSES THEM TO LOSE THEIR MEMORIES.

    --  PETER'S THEORY OF RECIPROCAL INHIBITION OF FISCAL RECALL
 Job cpu time:       0 days  2 hours 12 minutes 40.1 seconds.
 File lengths (MBytes):  RWF=    266 Int=      0 D2E=      0 Chk=     18 Scr=      1
 Normal termination of Gaussian 09 at Fri May 17 10:23:50 2024.
