 Entering Gaussian System, Link 0=/home/madghost/g09/g09
 Input=job118.gjf
 Output=job118.log
 Initial command:
 /home/madghost/g09/l1.exe "/scr/natalya/job118/Gau-1492772.inp" -scrdir="/scr/natalya/job118/"
 Entering Link 1 = /home/madghost/g09/l1.exe PID=   1492774.
  
 Copyright (c) 1988,1990,1992,1993,1995,1998,2003,2009,2013,
            Gaussian, Inc.  All Rights Reserved.
  
 This is part of the Gaussian(R) 09 program.  It is based on
 the Gaussian(R) 03 system (copyright 2003, Gaussian, Inc.),
 the Gaussian(R) 98 system (copyright 1998, Gaussian, Inc.),
 the Gaussian(R) 94 system (copyright 1995, Gaussian, Inc.),
 the Gaussian 92(TM) system (copyright 1992, Gaussian, Inc.),
 the Gaussian 90(TM) system (copyright 1990, Gaussian, Inc.),
 the Gaussian 88(TM) system (copyright 1988, Gaussian, Inc.),
 the Gaussian 86(TM) system (copyright 1986, Carnegie Mellon
 University), and the Gaussian 82(TM) system (copyright 1983,
 Carnegie Mellon University). Gaussian is a federally registered
 trademark of Gaussian, Inc.
  
 This software contains proprietary and confidential information,
 including trade secrets, belonging to Gaussian, Inc.
  
 This software is provided under written license and may be
 used, copied, transmitted, or stored only in accord with that
 written license.
  
 The following legend is applicable only to US Government
 contracts under FAR:
  
                    RESTRICTED RIGHTS LEGEND
  
 Use, reproduction and disclosure by the US Government is
 subject to restrictions as set forth in subparagraphs (a)
 and (c) of the Commercial Computer Software - Restricted
 Rights clause in FAR 52.227-19.
  
 Gaussian, Inc.
 340 Quinnipiac St., Bldg. 40, Wallingford CT 06492
  
  
 ---------------------------------------------------------------
 Warning -- This program may not be used in any manner that
 competes with the business of Gaussian, Inc. or will provide
 assistance to any competitor of Gaussian, Inc.  The licensee
 of this program is prohibited from giving any competitor of
 Gaussian, Inc. access to this program.  By using this program,
 the user acknowledges that Gaussian, Inc. is engaged in the
 business of creating and licensing software in the field of
 computational chemistry and represents and warrants to the
 licensee that it is not a competitor of Gaussian, Inc. and that
 it will not use this program in any manner prohibited above.
 ---------------------------------------------------------------
  

 Cite this work as:
 Gaussian 09, Revision D.01,
 M. J. Frisch, G. W. Trucks, H. B. Schlegel, G. E. Scuseria, 
 M. A. Robb, J. R. Cheeseman, G. Scalmani, V. Barone, B. Mennucci, 
 G. A. Petersson, H. Nakatsuji, M. Caricato, X. Li, H. P. Hratchian, 
 A. F. Izmaylov, J. Bloino, G. Zheng, J. L. Sonnenberg, M. Hada, 
 M. Ehara, K. Toyota, R. Fukuda, J. Hasegawa, M. Ishida, T. Nakajima, 
 Y. Honda, O. Kitao, H. Nakai, T. Vreven, J. A. Montgomery, Jr., 
 J. E. Peralta, F. Ogliaro, M. Bearpark, J. J. Heyd, E. Brothers, 
 K. N. Kudin, V. N. Staroverov, T. Keith, R. Kobayashi, J. Normand, 
 K. Raghavachari, A. Rendell, J. C. Burant, S. S. Iyengar, J. Tomasi, 
 M. Cossi, N. Rega, J. M. Millam, M. Klene, J. E. Knox, J. B. Cross, 
 V. Bakken, C. Adamo, J. Jaramillo, R. Gomperts, R. E. Stratmann, 
 O. Yazyev, A. J. Austin, R. Cammi, C. Pomelli, J. W. Ochterski, 
 R. L. Martin, K. Morokuma, V. G. Zakrzewski, G. A. Voth, 
 P. Salvador, J. J. Dannenberg, S. Dapprich, A. D. Daniels, 
 O. Farkas, J. B. Foresman, J. V. Ortiz, J. Cioslowski, 
 and D. J. Fox, Gaussian, Inc., Wallingford CT, 2013.
 
 ******************************************
 Gaussian 09:  EM64L-G09RevD.01 24-Apr-2013
                17-May-2024 
 ******************************************
 %chk=job118.chk
 %nproc=24
 Will use up to   24 processors via shared memory.
 %mem=48000mb
 --------------------------
 #P PBE1PBE/GEN pop=nboread
 --------------------------
 1/38=1/1;
 2/12=2,17=6,18=5,40=1/2;
 3/5=7,11=2,16=1,25=1,30=1,74=-13/1,2,3;
 4//1;
 5/5=2,38=5/2;
 6/7=2,8=2,9=2,10=2,28=1,40=2/1,7;
 99/5=1,9=1/99;
 Leave Link    1 at Fri May 17 11:31:35 2024, MaxMem=  6291456000 cpu:         0.9
 (Enter /home/madghost/g09/l101.exe)
 -
 s
 -
 Symbolic Z-matrix:
 Charge =  0 Multiplicity = 1
 6                     0.18762   0.72687  -1.29446 
 1                    -0.13011   1.17826  -2.24342 
 1                     1.27617   0.82687  -1.20768 
 6                    -0.18762  -0.72687  -1.29446 
 1                    -1.27617  -0.82687  -1.20768 
 1                     0.13011  -1.17826  -2.24342 
 8                    -0.45636   1.35096  -0.2113 
 8                     0.45636  -1.35096  -0.2113 
 6                    -0.21865   2.66645   0.00139 
 6                    -0.85478   3.22847   1.10668 
 6                     0.59574   3.45597  -0.80343 
 6                    -0.67599   4.56585   1.40029 
 6                     0.76573   4.80038  -0.49346 
 6                     0.13653   5.36355   0.602 
 1                    -1.48232   2.59334   1.72017 
 1                     1.09936   3.04073  -1.66593 
 1                    -1.17537   4.99163   2.26319 
 1                     1.40283   5.4087   -1.12551 
 1                     0.27542   6.41201   0.83543 
 6                     0.21865  -2.66645   0.00139 
 6                    -0.59574  -3.45597  -0.80343 
 6                     0.85478  -3.22847   1.10668 
 6                    -0.76573  -4.80038  -0.49346 
 6                     0.67599  -4.56585   1.40029 
 6                    -0.13653  -5.36355   0.602 
 1                    -1.09936  -3.04073  -1.66593 
 1                     1.48232  -2.59334   1.72017 
 1                    -1.40283  -5.4087   -1.12551 
 1                     1.17537  -4.99163   2.26319 
 1                    -0.27542  -6.41201   0.83543 
 
 NAtoms=     30 NQM=       30 NQMF=       0 NMMI=      0 NMMIF=      0
                NMic=       0 NMicF=      0.
                    Isotopes and Nuclear Properties:
 (Nuclear quadrupole moments (NQMom) in fm**2, nuclear magnetic moments (NMagM)
  in nuclear magnetons)

  Atom         1           2           3           4           5           6           7           8           9          10
 IAtWgt=          12           1           1          12           1           1          16          16          12          12
 AtmWgt=  12.0000000   1.0078250   1.0078250  12.0000000   1.0078250   1.0078250  15.9949146  15.9949146  12.0000000  12.0000000
 NucSpn=           0           1           1           0           1           1           0           0           0           0
 AtZEff=   0.0000000   0.0000000   0.0000000   0.0000000   0.0000000   0.0000000   0.0000000   0.0000000   0.0000000   0.0000000
 NQMom=    0.0000000   0.0000000   0.0000000   0.0000000   0.0000000   0.0000000   0.0000000   0.0000000   0.0000000   0.0000000
 NMagM=    0.0000000   2.7928460   2.7928460   0.0000000   2.7928460   2.7928460   0.0000000   0.0000000   0.0000000   0.0000000
 AtZNuc=   6.0000000   1.0000000   1.0000000   6.0000000   1.0000000   1.0000000   8.0000000   8.0000000   6.0000000   6.0000000

  Atom        11          12          13          14          15          16          17          18          19          20
 IAtWgt=          12          12          12          12           1           1           1           1           1          12
 AtmWgt=  12.0000000  12.0000000  12.0000000  12.0000000   1.0078250   1.0078250   1.0078250   1.0078250   1.0078250  12.0000000
 NucSpn=           0           0           0           0           1           1           1           1           1           0
 AtZEff=   0.0000000   0.0000000   0.0000000   0.0000000   0.0000000   0.0000000   0.0000000   0.0000000   0.0000000   0.0000000
 NQMom=    0.0000000   0.0000000   0.0000000   0.0000000   0.0000000   0.0000000   0.0000000   0.0000000   0.0000000   0.0000000
 NMagM=    0.0000000   0.0000000   0.0000000   0.0000000   2.7928460   2.7928460   2.7928460   2.7928460   2.7928460   0.0000000
 AtZNuc=   6.0000000   6.0000000   6.0000000   6.0000000   1.0000000   1.0000000   1.0000000   1.0000000   1.0000000   6.0000000

  Atom        21          22          23          24          25          26          27          28          29          30
 IAtWgt=          12          12          12          12          12           1           1           1           1           1
 AtmWgt=  12.0000000  12.0000000  12.0000000  12.0000000  12.0000000   1.0078250   1.0078250   1.0078250   1.0078250   1.0078250
 NucSpn=           0           0           0           0           0           1           1           1           1           1
 AtZEff=   0.0000000   0.0000000   0.0000000   0.0000000   0.0000000   0.0000000   0.0000000   0.0000000   0.0000000   0.0000000
 NQMom=    0.0000000   0.0000000   0.0000000   0.0000000   0.0000000   0.0000000   0.0000000   0.0000000   0.0000000   0.0000000
 NMagM=    0.0000000   0.0000000   0.0000000   0.0000000   0.0000000   2.7928460   2.7928460   2.7928460   2.7928460   2.7928460
 AtZNuc=   6.0000000   6.0000000   6.0000000   6.0000000   6.0000000   1.0000000   1.0000000   1.0000000   1.0000000   1.0000000
 Leave Link  101 at Fri May 17 11:31:35 2024, MaxMem=  6291456000 cpu:         2.4
 (Enter /home/madghost/g09/l202.exe)
                          Input orientation:                          
 ---------------------------------------------------------------------
 Center     Atomic      Atomic             Coordinates (Angstroms)
 Number     Number       Type             X           Y           Z
 ---------------------------------------------------------------------
      1          6           0        0.187619    0.726872   -1.294463
      2          1           0       -0.130113    1.178259   -2.243415
      3          1           0        1.276174    0.826874   -1.207677
      4          6           0       -0.187619   -0.726872   -1.294463
      5          1           0       -1.276174   -0.826874   -1.207677
      6          1           0        0.130113   -1.178259   -2.243415
      7          8           0       -0.456357    1.350964   -0.211297
      8          8           0        0.456357   -1.350964   -0.211297
      9          6           0       -0.218648    2.666454    0.001390
     10          6           0       -0.854777    3.228466    1.106683
     11          6           0        0.595742    3.455970   -0.803425
     12          6           0       -0.675992    4.565850    1.400290
     13          6           0        0.765725    4.800384   -0.493457
     14          6           0        0.136528    5.363545    0.602003
     15          1           0       -1.482319    2.593337    1.720169
     16          1           0        1.099358    3.040730   -1.665930
     17          1           0       -1.175370    4.991627    2.263187
     18          1           0        1.402831    5.408700   -1.125506
     19          1           0        0.275418    6.412013    0.835426
     20          6           0        0.218648   -2.666454    0.001390
     21          6           0       -0.595742   -3.455970   -0.803425
     22          6           0        0.854777   -3.228466    1.106683
     23          6           0       -0.765725   -4.800384   -0.493457
     24          6           0        0.675992   -4.565850    1.400290
     25          6           0       -0.136528   -5.363545    0.602003
     26          1           0       -1.099358   -3.040730   -1.665930
     27          1           0        1.482319   -2.593337    1.720169
     28          1           0       -1.402831   -5.408700   -1.125506
     29          1           0        1.175370   -4.991627    2.263187
     30          1           0       -0.275418   -6.412013    0.835426
 ---------------------------------------------------------------------
                    Distance matrix (angstroms):
                    1          2          3          4          5
     1  C    0.000000
     2  H    1.097822   0.000000
     3  H    1.096578   1.781535   0.000000
     4  C    1.501391   2.129164   2.136434   0.000000
     5  H    2.136434   2.531159   3.041277   1.096578   0.000000
     6  H    2.129164   2.370843   2.531159   1.097822   1.781535
     7  O    1.406216   2.065373   2.066182   2.358574   2.531373
     8  O    2.358574   3.297032   2.531373   1.406216   2.066182
     9  C    2.367756   2.694756   2.660900   3.632473   3.844938
    10  C    3.620782   3.993951   3.957886   4.674965   4.688243
    11  C    2.802795   2.790771   2.745643   4.283800   4.691507
    12  C    4.769200   5.005032   4.959071   5.959288   6.020231
    13  C    4.191577   4.121246   4.069330   5.665777   6.028722
    14  C    5.009783   5.067950   5.015488   6.387083   6.602420
    15  H    3.919233   4.420510   4.393399   4.667766   4.506953
    16  H    2.514596   2.305187   2.267690   3.998640   4.561963
    17  H    5.718632   5.995315   5.949969   6.806890   6.775840
    18  H    4.839917   4.636407   4.584313   6.340609   6.787209
    19  H    6.071652   6.085713   6.030718   7.464215   7.680052
    20  C    3.632473   4.465714   3.844938   2.367756   2.660900
    21  C    4.283800   4.875086   4.691507   2.802795   2.745643
    22  C    4.674965   5.622490   4.688243   3.620782   3.957886
    23  C    5.665777   6.261831   6.028722   4.191577   4.069330
    24  C    5.959288   6.849904   6.020231   4.769200   4.959071
    25  C    6.387083   7.133838   6.602420   5.009783   5.015488
    26  H    3.998640   4.367241   4.561963   2.514596   2.267690
    27  H    4.667766   5.703935   4.506953   3.919233   4.393399
    28  H    6.340609   6.801291   6.787209   4.839917   4.584313
    29  H    6.806890   7.751209   6.775840   5.718632   5.949969
    30  H    7.464215   8.192228   7.680052   6.071652   6.030718
                    6          7          8          9         10
     6  H    0.000000
     7  O    3.297032   0.000000
     8  O    2.065373   2.851922   0.000000
     9  C    4.465714   1.353608   4.079279   0.000000
    10  C    5.622490   2.328266   4.942401   1.393625   0.000000
    11  C    4.875086   2.426639   4.845272   1.390789   2.409207
    12  C    6.849904   3.602908   6.236034   2.402871   1.380857
    13  C    6.261831   3.670367   6.165582   2.401566   2.767201
    14  C    7.133838   4.136880   6.771143   2.785890   2.407478
    15  H    5.703935   2.515283   4.800681   2.134575   1.083311
    16  H    4.367241   2.718734   4.670801   2.158050   3.397245
    17  H    7.751209   4.460323   7.001005   3.381933   2.132843
    18  H    6.801291   4.556049   6.886556   3.379201   3.851348
    19  H    8.192228   5.219707   7.835316   3.868970   3.389084
    20  C    2.694756   4.079279   1.353608   5.350807   6.092946
    21  C    2.790771   4.845272   2.426639   6.186599   6.956817
    22  C    3.993951   4.942401   2.328266   6.092946   6.679412
    23  C    4.121246   6.165582   3.670367   7.503188   8.187235
    24  C    5.005032   6.236034   3.602908   7.420480   7.948636
    25  C    5.067950   6.771143   4.136880   8.052848   8.636738
    26  H    2.305187   4.670801   2.718734   6.010620   6.859302
    27  H    4.420510   4.800681   2.515283   5.789032   6.303314
    28  H    4.636407   6.886556   4.556049   8.238950   8.937766
    29  H    5.995315   7.001005   4.460323   8.105875   8.545696
    30  H    6.085713   7.835316   5.219707   9.116875   9.661681
                   11         12         13         14         15
    11  C    0.000000
    12  C    2.775878   0.000000
    13  C    1.390116   2.391617   0.000000
    14  C    2.413493   1.390600   1.383138   0.000000
    15  H    3.380976   2.154830   3.850311   3.397795   0.000000
    16  H    1.081651   3.857404   2.140651   3.386153   4.281458
    17  H    3.859947   1.084092   3.376908   2.149170   2.478080
    18  H    2.137354   3.378098   1.084176   2.142393   4.934392
    19  H    3.395089   2.152341   2.145619   1.083080   4.295893
    20  C    6.186599   7.420480   7.503188   8.052848   5.789032
    21  C    7.013883   8.319399   8.373593   8.960764   6.614277
    22  C    6.956817   7.948636   8.187235   8.636738   6.303314
    23  C    8.373593   9.556185   9.722144  10.262531   7.751178
    24  C    8.319399   9.231241   9.556185   9.976030   7.484289
    25  C    8.960764   9.976030  10.262531  10.730565   8.146988
    26  H    6.769371   8.212247   8.144710   8.792200   6.584454
    27  H    6.614277   7.484289   7.751178   8.146988   5.974167
    28  H    9.092877  10.315018  10.455980  11.017948   8.493337
    29  H    9.005663   9.773305  10.180883  10.538895   8.055424
    30  H   10.041008  10.999682  11.338772  11.785073   9.128839
                   16         17         18         19         20
    16  H    0.000000
    17  H    4.941492   0.000000
    18  H    2.447741   4.278354   0.000000
    19  H    4.277991   2.482093   2.474460   0.000000
    20  C    6.010620   8.105875   8.238950   9.116875   0.000000
    21  C    6.769371   9.005663   9.092877  10.041008   1.390789
    22  C    6.859302   8.545696   8.937766   9.661681   1.393625
    23  C    8.144710  10.180883  10.455980  11.338772   2.401566
    24  C    8.212247   9.773305  10.315018  10.999682   2.402871
    25  C    8.792200  10.538895  11.017948  11.785073   2.785890
    26  H    6.466723   8.942175   8.828696   9.874267   2.158050
    27  H    6.584454   8.055424   8.493337   9.128839   2.134575
    28  H    8.828696  10.940831  11.175325  12.099216   3.379201
    29  H    8.942175  10.256283  10.940831  11.527854   3.381933
    30  H    9.874267  11.527854  12.099216  12.835851   3.868970
                   21         22         23         24         25
    21  C    0.000000
    22  C    2.409207   0.000000
    23  C    1.390116   2.767201   0.000000
    24  C    2.775878   1.380857   2.391617   0.000000
    25  C    2.413493   2.407478   1.383138   1.390600   0.000000
    26  H    1.081651   3.397245   2.140651   3.857404   3.386153
    27  H    3.380976   1.083311   3.850311   2.154830   3.397795
    28  H    2.137354   3.851348   1.084176   3.378098   2.142393
    29  H    3.859947   2.132843   3.376908   1.084092   2.149170
    30  H    3.395089   3.389084   2.145619   2.152341   1.083080
                   26         27         28         29         30
    26  H    0.000000
    27  H    4.281458   0.000000
    28  H    2.447741   4.934392   0.000000
    29  H    4.941492   2.478080   4.278354   0.000000
    30  H    4.277991   4.295893   2.474460   2.482093   0.000000
 Stoichiometry    C14H14O2
 Framework group  C2[X(C14H14O2)]
 Deg. of freedom    43
 Full point group                 C2      NOp   2
 Largest Abelian subgroup         C2      NOp   2
 Largest concise Abelian subgroup C2      NOp   2
                         Standard orientation:                         
 ---------------------------------------------------------------------
 Center     Atomic      Atomic             Coordinates (Angstroms)
 Number     Number       Type             X           Y           Z
 ---------------------------------------------------------------------
      1          6           0        0.180647    0.728636   -1.294463
      2          1           0       -0.141395    1.176958   -2.243415
      3          1           0        1.268194    0.839062   -1.207677
      4          6           0       -0.180647   -0.728636   -1.294463
      5          1           0       -1.268194   -0.839062   -1.207677
      6          1           0        0.141395   -1.176958   -2.243415
      7          8           0       -0.469278    1.346530   -0.211297
      8          8           0        0.469278   -1.346530   -0.211297
      9          6           0       -0.244183    2.664237    0.001390
     10          6           0       -0.885667    3.220129    1.106683
     11          6           0        0.562606    3.461519   -0.803425
     12          6           0       -0.719702    4.559164    1.400290
     13          6           0        0.719702    4.807499   -0.493457
     14          6           0        0.085139    5.364607    0.602003
     15          1           0       -1.507095    2.579017    1.720169
     16          1           0        1.070177    3.051122   -1.665930
     17          1           0       -1.223136    4.980138    2.263187
     18          1           0        1.350951    5.421891   -1.125506
     19          1           0        0.213978    6.414357    0.835426
     20          6           0        0.244183   -2.664237    0.001390
     21          6           0       -0.562606   -3.461519   -0.803425
     22          6           0        0.885667   -3.220129    1.106683
     23          6           0       -0.719702   -4.807499   -0.493457
     24          6           0        0.719702   -4.559164    1.400290
     25          6           0       -0.085139   -5.364607    0.602003
     26          1           0       -1.070177   -3.051122   -1.665930
     27          1           0        1.507095   -2.579017    1.720169
     28          1           0       -1.350951   -5.421891   -1.125506
     29          1           0        1.223136   -4.980138    2.263187
     30          1           0       -0.213978   -6.414357    0.835426
 ---------------------------------------------------------------------
 Rotational constants (GHZ):      1.9122983      0.1787046      0.1720277
 Leave Link  202 at Fri May 17 11:31:35 2024, MaxMem=  6291456000 cpu:         0.1
 (Enter /home/madghost/g09/l301.exe)
 General basis read from cards:  (5D, 7F)
 Centers:       2      3      5      6     15     16     17     18     19     26
 Centers:      27     28     29     30
 S 3 1.00
     Exponent=  3.4061341000D+01 Coefficients=  6.0251978000D-03
     Exponent=  5.1235746000D+00 Coefficients=  4.5021094000D-02
     Exponent=  1.1646626000D+00 Coefficients=  2.0189726000D-01
 S 1 1.00
     Exponent=  3.2723041000D-01 Coefficients=  1.0000000000D+00
 S 1 1.00
     Exponent=  1.0307241000D-01 Coefficients=  1.0000000000D+00
 P 1 1.00
     Exponent=  1.4070000000D+00 Coefficients=  1.0000000000D+00
 P 1 1.00
     Exponent=  3.8800000000D-01 Coefficients=  1.0000000000D+00
 D 1 1.00
     Exponent=  1.0570000000D+00 Coefficients=  1.0000000000D+00
 ****
 Centers:       1      4      9     10     11     12     13     14     20     21
 Centers:      22     23     24     25
 S 6 1.00
     Exponent=  1.3575349682D+04 Coefficients=  2.2245814352D-04
     Exponent=  2.0352333680D+03 Coefficients=  1.7232738252D-03
     Exponent=  4.6322562359D+02 Coefficients=  8.9255715314D-03
     Exponent=  1.3120019598D+02 Coefficients=  3.5727984502D-02
     Exponent=  4.2853015891D+01 Coefficients=  1.1076259931D-01
     Exponent=  1.5584185766D+01 Coefficients=  2.4295627626D-01
 S 2 1.00
     Exponent=  6.2067138508D+00 Coefficients=  4.1440263448D-01
     Exponent=  2.5764896527D+00 Coefficients=  2.3744968655D-01
 S 1 1.00
     Exponent=  5.7696339419D-01 Coefficients=  1.0000000000D+00
 S 1 1.00
     Exponent=  2.2972831358D-01 Coefficients=  1.0000000000D+00
 S 1 1.00
     Exponent=  9.5164440028D-02 Coefficients=  1.0000000000D+00
 P 4 1.00
     Exponent=  3.4697232244D+01 Coefficients=  5.3333657805D-03
     Exponent=  7.9582622826D+00 Coefficients=  3.5864109092D-02
     Exponent=  2.3780826883D+00 Coefficients=  1.4215873329D-01
     Exponent=  8.1433208183D-01 Coefficients=  3.4270471845D-01
 P 1 1.00
     Exponent=  2.8887547253D-01 Coefficients=  4.6445822433D-01
 P 1 1.00
     Exponent=  1.0056823671D-01 Coefficients=  2.4955789874D-01
 D 1 1.00
     Exponent=  1.0970000000D+00 Coefficients=  1.0000000000D+00
 D 1 1.00
     Exponent=  3.1800000000D-01 Coefficients=  1.0000000000D+00
 F 1 1.00
     Exponent=  7.6100000000D-01 Coefficients=  1.0000000000D+00
 ****
 Centers:       7      8
 S 6 1.00
     Exponent=  2.7032382631D+04 Coefficients=  2.1726302465D-04
     Exponent=  4.0523871392D+03 Coefficients=  1.6838662199D-03
     Exponent=  9.2232722710D+02 Coefficients=  8.7395616265D-03
     Exponent=  2.6124070989D+02 Coefficients=  3.5239968808D-02
     Exponent=  8.5354641351D+01 Coefficients=  1.1153519115D-01
     Exponent=  3.1035035245D+01 Coefficients=  2.5588953961D-01
 S 2 1.00
     Exponent=  1.2260860728D+01 Coefficients=  3.9768730901D-01
     Exponent=  4.9987076005D+00 Coefficients=  2.4627849430D-01
 S 1 1.00
     Exponent=  1.1703108158D+00 Coefficients=  1.0000000000D+00
 S 1 1.00
     Exponent=  4.6474740994D-01 Coefficients=  1.0000000000D+00
 S 1 1.00
     Exponent=  1.8504536357D-01 Coefficients=  1.0000000000D+00
 P 4 1.00
     Exponent=  6.3274954801D+01 Coefficients=  6.0685103418D-03
     Exponent=  1.4627049379D+01 Coefficients=  4.1912575824D-02
     Exponent=  4.4501223456D+00 Coefficients=  1.6153841088D-01
     Exponent=  1.5275799647D+00 Coefficients=  3.5706951311D-01
 P 1 1.00
     Exponent=  5.2935117943D-01 Coefficients=  4.4794207502D-01
 P 1 1.00
     Exponent=  1.7478421270D-01 Coefficients=  2.4446069663D-01
 D 1 1.00
     Exponent=  2.3140000000D+00 Coefficients=  1.0000000000D+00
 D 1 1.00
     Exponent=  6.4500000000D-01 Coefficients=  1.0000000000D+00
 F 1 1.00
     Exponent=  1.4280000000D+00 Coefficients=  1.0000000000D+00
 ****
 Ernie: Thresh=  0.10000D-02 Tol=  0.10000D-05 Strict=F.
 There are   393 symmetry adapted cartesian basis functions of A   symmetry.
 There are   393 symmetry adapted cartesian basis functions of B   symmetry.
 There are   346 symmetry adapted basis functions of A   symmetry.
 There are   346 symmetry adapted basis functions of B   symmetry.
   692 basis functions,  1054 primitive gaussians,   786 cartesian basis functions
    57 alpha electrons       57 beta electrons
       nuclear repulsion energy       976.2457608194 Hartrees.
 IExCor= 1009 DFT=T Ex+Corr=PBE1PBE ExCW=0 ScaHFX=  0.250000
 ScaDFX=  0.750000  0.750000  1.000000  1.000000 ScalE2=  1.000000  1.000000
 IRadAn=      0 IRanWt=     -1 IRanGd=            0 ICorTp=0 IEmpDi=  4
 NAtoms=   30 NActive=   30 NUniq=   15 SFac= 4.00D+00 NAtFMM=   60 NAOKFM=F Big=F
 Integral buffers will be    131072 words long.
 Raffenetti 2 integral format.
 Two-electron integral symmetry is turned on.
 Leave Link  301 at Fri May 17 11:31:35 2024, MaxMem=  6291456000 cpu:         2.1
 (Enter /home/madghost/g09/l302.exe)
 NPDir=0 NMtPBC=     1 NCelOv=     1 NCel=       1 NClECP=     1 NCelD=      1
         NCelK=      1 NCelE2=     1 NClLst=     1 CellRange=     0.0.
 One-electron integrals computed using PRISM.
 One-electron integral symmetry used in STVInt
 NBasis=   692 RedAO= T EigKep=  6.29D-06  NBF=   346   346
 NBsUse=   692 1.00D-06 EigRej= -1.00D+00 NBFU=   346   346
 Precomputing XC quadrature grid using
 IXCGrd= 4 IRadAn=           0 IRanWt=          -1 IRanGd=           0 AccXCQ= 0.00D+00.
 Generated NRdTot=       0 NPtTot=           0 NUsed=           0 NTot=          32
 NSgBfM=   746   748   751   752   752 MxSgAt=    30 MxSgA2=    30.
 Leave Link  302 at Fri May 17 11:31:36 2024, MaxMem=  6291456000 cpu:        29.3
 (Enter /home/madghost/g09/l303.exe)
 DipDrv:  MaxL=1.
 Leave Link  303 at Fri May 17 11:31:37 2024, MaxMem=  6291456000 cpu:         3.3
 (Enter /home/madghost/g09/l401.exe)
 ExpMin= 9.52D-02 ExpMax= 2.70D+04 ExpMxC= 9.22D+02 IAcc=2 IRadAn=         4 AccDes= 0.00D+00
 Harris functional with IExCor= 1009 and IRadAn=       4 diagonalized for initial guess.
 HarFok:  IExCor= 1009 AccDes= 0.00D+00 IRadAn=         4 IDoV= 1 UseB2=F ITyADJ=14
 ICtDFT=  3500011 ScaDFX=  1.000000  1.000000  1.000000  1.000000
 FoFCou: FMM=F IPFlag=           0 FMFlag=      100000 FMFlg1=           0
         NFxFlg=           0 DoJE=T BraDBF=F KetDBF=T FulRan=T
         wScrn=  0.000000 ICntrl=     500 IOpCl=  0 I1Cent=   200000004 NGrid=           0
         NMat0=    1 NMatS0=      1 NMatT0=    0 NMatD0=    1 NMtDS0=    0 NMtDT0=    0
 Petite list used in FoFCou.
 Harris En= -692.034671266631    
 JPrj=0 DoOrth=F DoCkMO=F.
 Initial guess orbital symmetries:
       Occupied  (A) (B) (B) (A) (B) (A) (B) (A) (B) (A) (B) (A)
                 (A) (B) (B) (A) (A) (B) (A) (B) (A) (B) (A) (B)
                 (A) (B) (A) (B) (A) (B) (A) (B) (A) (B) (A) (B)
                 (A) (B) (B) (A) (B) (A) (A) (B) (A) (B) (B) (A)
                 (A) (B) (A) (B) (A) (B) (A) (A) (B)
       Virtual   (B) (A) (A) (B) (A) (B) (A) (A) (B) (A) (B) (B)
                 (A) (B) (A) (B) (A) (B) (B) (A) (A) (B) (B) (A)
                 (B) (A) (B) (A) (B) (A) (B) (A) (A) (B) (B) (A)
                 (B) (A) (B) (A) (B) (A) (B) (A) (A) (B) (B) (A)
                 (B) (B) (A) (A) (A) (B) (B) (A) (A) (B) (B) (A)
                 (A) (B) (B) (B) (A) (A) (B) (A) (B) (A) (B) (A)
                 (B) (A) (B) (A) (B) (A) (B) (A) (A) (B) (B) (A)
                 (A) (B) (B) (A) (A) (B) (B) (A) (A) (A) (B) (B)
                 (B) (A) (A) (B) (B) (A) (B) (A) (B) (B) (A) (A)
                 (A) (B) (A) (B) (B) (A) (B) (A) (B) (A) (A) (A)
                 (B) (B) (A) (B) (B) (B) (A) (A) (B) (A) (B) (B)
                 (A) (A) (A) (B) (A) (B) (A) (B) (B) (A) (A) (B)
                 (A) (B) (A) (B) (B) (A) (B) (A) (B) (A) (B) (A)
                 (A) (B) (B) (A) (B) (B) (A) (B) (A) (A) (B) (B)
                 (A) (A) (B) (A) (B) (A) (B) (A) (A) (B) (B) (A)
                 (B) (B) (A) (B) (A) (B) (A) (B) (A) (A) (B) (B)
                 (A) (B) (A) (B) (A) (A) (B) (A) (B) (B) (A) (A)
                 (B) (A) (B) (A) (B) (A) (B) (A) (B) (B) (A) (B)
                 (A) (B) (A) (A) (B) (B) (A) (A) (B) (A) (B) (A)
                 (B) (A) (B) (B) (A) (A) (A) (B) (B) (A) (B) (A)
                 (B) (A) (B) (B) (A) (A) (B) (A) (B) (A) (A) (B)
                 (A) (B) (A) (B) (B) (A) (A) (B) (B) (A) (B) (A)
                 (B) (A) (B) (A) (A) (B) (B) (A) (B) (A) (A) (B)
                 (A) (B) (A) (B) (B) (A) (A) (B) (A) (B) (B) (A)
                 (B) (A) (A) (B) (B) (A) (A) (B) (A) (B) (A) (B)
                 (B) (A) (B) (A) (B) (A) (B) (A) (A) (B) (A) (B)
                 (A) (B) (B) (B) (A) (B) (A) (B) (A) (A) (B) (B)
                 (A) (A) (B) (B) (A) (B) (A) (B) (A) (A) (A) (B)
                 (B) (A) (A) (B) (A) (B) (A) (B) (A) (B) (A) (B)
                 (A) (B) (B) (A) (B) (A) (A) (B) (A) (A) (B) (B)
                 (A) (B) (B) (A) (A) (B) (B) (A) (B) (B) (A) (A)
                 (B) (A) (B) (B) (A) (B) (A) (A) (A) (B) (A) (B)
                 (A) (B) (B) (B) (A) (A) (B) (B) (A) (A) (B) (A)
                 (B) (A) (B) (A) (B) (A) (A) (B) (B) (A) (A) (B)
                 (B) (A) (B) (A) (B) (A) (A) (B) (B) (A) (B) (A)
                 (B) (B) (A) (A) (B) (B) (A) (A) (A) (B) (A) (B)
                 (B) (A) (B) (A) (B) (A) (A) (B) (A) (B) (A) (B)
                 (A) (B) (A) (B) (B) (A) (A) (B) (A) (B) (B) (A)
                 (B) (A) (B) (B) (A) (A) (A) (B) (B) (A) (B) (A)
                 (A) (B) (B) (A) (B) (A) (A) (B) (B) (A) (B) (A)
                 (B) (A) (B) (A) (B) (A) (A) (B) (B) (A) (A) (B)
                 (A) (B) (A) (B) (B) (A) (A) (B) (A) (B) (B) (B)
                 (A) (A) (B) (A) (B) (A) (A) (B) (B) (A) (B) (A)
                 (B) (A) (B) (A) (B) (A) (B) (A) (B) (A) (B) (A)
                 (B) (A) (A) (B) (A) (B) (B) (A) (A) (B) (A) (B)
                 (A) (B) (A) (A) (B) (B) (B) (A) (A) (A) (B) (A)
                 (B) (A) (B) (B) (A) (B) (A) (B) (A) (B) (A) (B)
                 (A) (B) (A) (B) (B) (A) (A) (B) (B) (A) (B) (A)
                 (A) (B) (B) (A) (B) (A) (A) (B) (B) (A) (B) (A)
                 (B) (A) (B) (A) (A) (B) (B) (A) (B) (A) (A) (B)
                 (B) (B) (A) (B) (A) (A) (B) (B) (A) (B) (A) (A)
                 (B) (B) (A) (A) (B) (A) (B) (A) (B) (A) (B) (A)
                 (B) (A) (B) (A) (B) (A) (B) (A) (B) (B) (A)
 The electronic state of the initial guess is 1-A.
 Leave Link  401 at Fri May 17 11:31:40 2024, MaxMem=  6291456000 cpu:        64.4
 (Enter /home/madghost/g09/l502.exe)
 Closed shell SCF:
 Using DIIS extrapolation, IDIIS=  1040.
 Integral symmetry usage will be decided dynamically.
 IVT=     1897486 IEndB=     1897486 NGot=  6291456000 MDV=  6290193737
 LenX=  6290193737 LenY=  6289575155
 Requested convergence on RMS density matrix=1.00D-08 within 128 cycles.
 Requested convergence on MAX density matrix=1.00D-06.
 Requested convergence on             energy=1.00D-06.
 No special actions if energy rises.
 Fock matrices will be formed incrementally for  20 cycles.
 Integral accuracy reduced to 1.0D-05 until final iterations.

 Cycle   1  Pass 0  IDiag  1:
 FoFJK:  IHMeth= 1 ICntrl=       0 DoSepK=F KAlg= 0 I1Cent=   0 FoldK=F
 IRaf= 730000000 NMat=   1 IRICut=       1 DoRegI=T DoRafI=F ISym2E= 1.
 FoFCou: FMM=F IPFlag=           0 FMFlag=      100000 FMFlg1=           0
         NFxFlg=           0 DoJE=F BraDBF=F KetDBF=F FulRan=T
         wScrn=  0.000000 ICntrl=       0 IOpCl=  0 I1Cent=           0 NGrid=           0
         NMat0=    1 NMatS0=      1 NMatT0=    0 NMatD0=    1 NMtDS0=    0 NMtDT0=    0
 Petite list used in FoFCou.
 E= -691.424158133713    
 DIIS: error= 2.51D-02 at cycle   1 NSaved=   1.
 NSaved= 1 IEnMin= 1 EnMin= -691.424158133713     IErMin= 1 ErrMin= 2.51D-02
 ErrMax= 2.51D-02  0.00D+00 EMaxC= 1.00D-01 BMatC= 3.95D-01 BMatP= 3.95D-01
 IDIUse=3 WtCom= 7.49D-01 WtEn= 2.51D-01
 Coeff-Com:  0.100D+01
 Coeff-En:   0.100D+01
 Coeff:      0.100D+01
 Gap=     0.261 Goal=   None    Shift=    0.000
 GapD=    0.261 DampG=1.000 DampE=0.500 DampFc=0.5000 IDamp=-1.
 Damping current iteration by 5.00D-01
 RMSDP=1.34D-02 MaxDP=8.04D-01              OVMax= 2.02D-01

 Cycle   2  Pass 0  IDiag  1:
 RMSU=  6.68D-03    CP:  1.07D+00
 E= -691.594340753394     Delta-E=       -0.170182619680 Rises=F Damp=T
 DIIS: error= 6.41D-03 at cycle   2 NSaved=   2.
 NSaved= 2 IEnMin= 2 EnMin= -691.594340753394     IErMin= 2 ErrMin= 6.41D-03
 ErrMax= 6.41D-03  0.00D+00 EMaxC= 1.00D-01 BMatC= 2.80D-02 BMatP= 3.95D-01
 IDIUse=3 WtCom= 9.36D-01 WtEn= 6.41D-02
 Coeff-Com: -0.847D-02 0.101D+01
 Coeff-En:   0.485D-01 0.952D+00
 Coeff:     -0.482D-02 0.100D+01
 Gap=     0.287 Goal=   None    Shift=    0.000
 RMSDP=1.02D-03 MaxDP=4.63D-02 DE=-1.70D-01 OVMax= 1.42D-01

 Cycle   3  Pass 0  IDiag  1:
 RMSU=  1.02D-03    CP:  1.07D+00  1.01D+00
 E= -691.779429501116     Delta-E=       -0.185088747723 Rises=F Damp=F
 DIIS: error= 7.05D-03 at cycle   3 NSaved=   3.
 NSaved= 3 IEnMin= 3 EnMin= -691.779429501116     IErMin= 2 ErrMin= 6.41D-03
 ErrMax= 7.05D-03  0.00D+00 EMaxC= 1.00D-01 BMatC= 1.69D-02 BMatP= 2.80D-02
 IDIUse=3 WtCom= 9.30D-01 WtEn= 7.05D-02
 Coeff-Com: -0.678D-01 0.451D+00 0.617D+00
 Coeff-En:   0.000D+00 0.000D+00 0.100D+01
 Coeff:     -0.630D-01 0.419D+00 0.644D+00
 Gap=     0.234 Goal=   None    Shift=    0.000
 RMSDP=1.88D-03 MaxDP=1.17D-01 DE=-1.85D-01 OVMax= 6.45D-02

 Cycle   4  Pass 0  IDiag  1:
 RMSU=  4.40D-04    CP:  1.04D+00  7.36D-01  9.95D-01
 E= -691.789742523873     Delta-E=       -0.010313022756 Rises=F Damp=F
 DIIS: error= 5.62D-03 at cycle   4 NSaved=   4.
 NSaved= 4 IEnMin= 4 EnMin= -691.789742523873     IErMin= 4 ErrMin= 5.62D-03
 ErrMax= 5.62D-03  0.00D+00 EMaxC= 1.00D-01 BMatC= 6.95D-03 BMatP= 1.69D-02
 IDIUse=3 WtCom= 9.44D-01 WtEn= 5.62D-02
 Coeff-Com: -0.414D-01 0.149D+00 0.419D+00 0.473D+00
 Coeff-En:   0.000D+00 0.000D+00 0.314D+00 0.686D+00
 Coeff:     -0.391D-01 0.141D+00 0.413D+00 0.485D+00
 Gap=     0.227 Goal=   None    Shift=    0.000
 RMSDP=1.03D-03 MaxDP=6.24D-02 DE=-1.03D-02 OVMax= 2.86D-02

 Cycle   5  Pass 0  IDiag  1:
 RMSU=  1.54D-04    CP:  1.05D+00  8.86D-01  1.02D+00  6.65D-01
 E= -691.796875742395     Delta-E=       -0.007133218523 Rises=F Damp=F
 DIIS: error= 7.47D-04 at cycle   5 NSaved=   5.
 NSaved= 5 IEnMin= 5 EnMin= -691.796875742395     IErMin= 5 ErrMin= 7.47D-04
 ErrMax= 7.47D-04  0.00D+00 EMaxC= 1.00D-01 BMatC= 2.10D-04 BMatP= 6.95D-03
 IDIUse=3 WtCom= 9.93D-01 WtEn= 7.47D-03
 Coeff-Com: -0.113D-01 0.267D-01 0.123D+00 0.220D+00 0.642D+00
 Coeff-En:   0.000D+00 0.000D+00 0.000D+00 0.000D+00 0.100D+01
 Coeff:     -0.113D-01 0.265D-01 0.122D+00 0.218D+00 0.644D+00
 Gap=     0.227 Goal=   None    Shift=    0.000
 RMSDP=2.57D-04 MaxDP=1.62D-02 DE=-7.13D-03 OVMax= 3.77D-03

 Cycle   6  Pass 0  IDiag  1:
 RMSU=  4.65D-05    CP:  1.05D+00  8.49D-01  1.03D+00  7.65D-01  1.18D+00
 E= -691.797068090927     Delta-E=       -0.000192348532 Rises=F Damp=F
 DIIS: error= 1.11D-04 at cycle   6 NSaved=   6.
 NSaved= 6 IEnMin= 6 EnMin= -691.797068090927     IErMin= 6 ErrMin= 1.11D-04
 ErrMax= 1.11D-04  0.00D+00 EMaxC= 1.00D-01 BMatC= 1.41D-05 BMatP= 2.10D-04
 IDIUse=3 WtCom= 9.99D-01 WtEn= 1.11D-03
 Coeff-Com: -0.420D-02 0.752D-02 0.467D-01 0.938D-01 0.333D+00 0.523D+00
 Coeff-En:   0.000D+00 0.000D+00 0.000D+00 0.000D+00 0.000D+00 0.100D+01
 Coeff:     -0.420D-02 0.751D-02 0.466D-01 0.937D-01 0.333D+00 0.524D+00
 Gap=     0.227 Goal=   None    Shift=    0.000
 RMSDP=1.29D-04 MaxDP=6.41D-03 DE=-1.92D-04 OVMax= 8.98D-04

 Cycle   7  Pass 0  IDiag  1:
 RMSU=  3.58D-05    CP:  1.05D+00  8.67D-01  1.02D+00  7.78D-01  1.33D+00
                    CP:  9.90D-01
 E= -691.797084617150     Delta-E=       -0.000016526223 Rises=F Damp=F
 DIIS: error= 5.21D-05 at cycle   7 NSaved=   7.
 NSaved= 7 IEnMin= 7 EnMin= -691.797084617150     IErMin= 7 ErrMin= 5.21D-05
 ErrMax= 5.21D-05  0.00D+00 EMaxC= 1.00D-01 BMatC= 7.77D-07 BMatP= 1.41D-05
 IDIUse=1 WtCom= 1.00D+00 WtEn= 0.00D+00
 Coeff-Com: -0.676D-03 0.589D-03 0.815D-02 0.183D-01 0.824D-01 0.221D+00
 Coeff-Com:  0.670D+00
 Coeff:     -0.676D-03 0.589D-03 0.815D-02 0.183D-01 0.824D-01 0.221D+00
 Coeff:      0.670D+00
 Gap=     0.227 Goal=   None    Shift=    0.000
 RMSDP=1.64D-04 MaxDP=8.75D-03 DE=-1.65D-05 OVMax= 3.75D-04

 Cycle   8  Pass 0  IDiag  1:
 RMSU=  1.97D-05    CP:  1.05D+00  8.90D-01  1.02D+00  7.95D-01  1.51D+00
                    CP:  1.20D+00  2.08D+00
 E= -691.797083169897     Delta-E=        0.000001447253 Rises=F Damp=F
 DIIS: error= 3.16D-05 at cycle   8 NSaved=   8.
 NSaved= 8 IEnMin= 7 EnMin= -691.797084617150     IErMin= 8 ErrMin= 3.16D-05
 ErrMax= 3.16D-05  0.00D+00 EMaxC= 1.00D-01 BMatC= 3.25D-07 BMatP= 7.77D-07
 IDIUse=1 WtCom= 1.00D+00 WtEn= 0.00D+00
 Coeff-Com: -0.176D-04-0.353D-03 0.661D-03 0.222D-02 0.202D-01 0.875D-01
 Coeff-Com:  0.426D+00 0.464D+00
 Coeff:     -0.176D-04-0.353D-03 0.661D-03 0.222D-02 0.202D-01 0.875D-01
 Coeff:      0.426D+00 0.464D+00
 Gap=     0.227 Goal=   None    Shift=    0.000
 RMSDP=1.62D-04 MaxDP=8.51D-03 DE= 1.45D-06 OVMax= 1.66D-04

 Cycle   9  Pass 0  IDiag  1:
 RMSU=  7.54D-06    CP:  1.05D+00  9.13D-01  1.02D+00  8.03D-01  1.64D+00
                    CP:  1.36D+00  2.93D+00  2.34D+00
 E= -691.797079568954     Delta-E=        0.000003600943 Rises=F Damp=F
 DIIS: error= 3.08D-05 at cycle   9 NSaved=   9.
 NSaved= 9 IEnMin= 7 EnMin= -691.797084617150     IErMin= 9 ErrMin= 3.08D-05
 ErrMax= 3.08D-05  0.00D+00 EMaxC= 1.00D-01 BMatC= 1.59D-07 BMatP= 3.25D-07
 IDIUse=1 WtCom= 1.00D+00 WtEn= 0.00D+00
 Coeff-Com: -0.582D-05-0.401D-03 0.565D-03 0.210D-02 0.207D-01 0.925D-01
 Coeff-Com:  0.458D+00 0.508D+00-0.815D-01
 Coeff:     -0.582D-05-0.401D-03 0.565D-03 0.210D-02 0.207D-01 0.925D-01
 Coeff:      0.458D+00 0.508D+00-0.815D-01
 Gap=     0.227 Goal=   None    Shift=    0.000
 RMSDP=3.46D-05 MaxDP=1.84D-03 DE= 3.60D-06 OVMax= 1.34D-05

 Cycle  10  Pass 0  IDiag  1:
 RMSU=  8.58D-07    CP:  1.05D+00  9.08D-01  1.02D+00  8.04D-01  1.62D+00
                    CP:  1.35D+00  2.78D+00  2.06D+00  7.26D-01
 E= -691.797080249320     Delta-E=       -0.000000680365 Rises=F Damp=F
 DIIS: error= 3.05D-05 at cycle  10 NSaved=  10.
 NSaved=10 IEnMin= 7 EnMin= -691.797084617150     IErMin=10 ErrMin= 3.05D-05
 ErrMax= 3.05D-05  0.00D+00 EMaxC= 1.00D-01 BMatC= 1.44D-07 BMatP= 1.59D-07
 IDIUse=1 WtCom= 1.00D+00 WtEn= 0.00D+00
 Coeff-Com:  0.527D-04-0.399D-03-0.199D-03 0.249D-03 0.114D-01 0.622D-01
 Coeff-Com:  0.345D+00 0.462D+00-0.337D+01 0.349D+01
 Coeff:      0.527D-04-0.399D-03-0.199D-03 0.249D-03 0.114D-01 0.622D-01
 Coeff:      0.345D+00 0.462D+00-0.337D+01 0.349D+01
 Gap=     0.227 Goal=   None    Shift=    0.000
 RMSDP=2.31D-04 MaxDP=1.28D-02 DE=-6.80D-07 OVMax= 8.03D-05

 Cycle  11  Pass 0  IDiag  1:
 RMSU=  1.76D-05    CP:  1.05D+00  8.74D-01  1.02D+00  8.45D-01  1.61D+00
                    CP:  1.56D+00  2.13D+00  1.10D+00 -4.42D-01  3.00D+00
 E= -691.797079733409     Delta-E=        0.000000515910 Rises=F Damp=F
 DIIS: error= 3.67D-05 at cycle  11 NSaved=  11.
 NSaved=11 IEnMin= 7 EnMin= -691.797084617150     IErMin=10 ErrMin= 3.05D-05
 ErrMax= 3.67D-05  0.00D+00 EMaxC= 1.00D-01 BMatC= 1.05D-07 BMatP= 1.44D-07
 IDIUse=1 WtCom= 1.00D+00 WtEn= 0.00D+00
 Coeff-Com:  0.633D-04-0.212D-03-0.579D-03-0.110D-02 0.613D-03 0.158D-01
 Coeff-Com:  0.128D+00 0.258D+00-0.520D+01 0.471D+01 0.109D+01
 Coeff:      0.633D-04-0.212D-03-0.579D-03-0.110D-02 0.613D-03 0.158D-01
 Coeff:      0.128D+00 0.258D+00-0.520D+01 0.471D+01 0.109D+01
 Gap=     0.227 Goal=   None    Shift=    0.000
 RMSDP=3.98D-05 MaxDP=2.09D-03 DE= 5.16D-07 OVMax= 3.92D-05

 Cycle  12  Pass 0  IDiag  1:
 RMSU=  1.34D-05    CP:  1.05D+00  8.72D-01  1.02D+00  8.65D-01  1.69D+00
                    CP:  1.60D+00  2.52D+00  5.20D-02 -2.27D+00  3.00D+00
                    CP:  1.51D+00
 E= -691.797084335451     Delta-E=       -0.000004602042 Rises=F Damp=F
 DIIS: error= 3.76D-05 at cycle  12 NSaved=  12.
 NSaved=12 IEnMin= 7 EnMin= -691.797084617150     IErMin=10 ErrMin= 3.05D-05
 ErrMax= 3.76D-05  0.00D+00 EMaxC= 1.00D-01 BMatC= 1.69D-07 BMatP= 1.05D-07
 IDIUse=1 WtCom= 1.00D+00 WtEn= 0.00D+00
 Coeff-Com:  0.967D-04-0.307D-03-0.921D-03-0.173D-02-0.843D-04 0.201D-01
 Coeff-Com:  0.167D+00 0.299D+00-0.369D+01 0.356D+01 0.140D+01-0.751D+00
 Coeff:      0.967D-04-0.307D-03-0.921D-03-0.173D-02-0.843D-04 0.201D-01
 Coeff:      0.167D+00 0.299D+00-0.369D+01 0.356D+01 0.140D+01-0.751D+00
 Gap=     0.227 Goal=   None    Shift=    0.000
 RMSDP=1.19D-04 MaxDP=6.74D-03 DE=-4.60D-06 OVMax= 4.98D-05

 Cycle  13  Pass 0  IDiag  1:
 RMSU=  9.40D-06    CP:  1.05D+00  8.88D-01  1.02D+00  8.29D-01  1.63D+00
                    CP:  1.45D+00  2.44D+00  1.56D+00  1.42D-01  3.00D+00
                    CP:  4.85D-01 -4.79D-02
 E= -691.797076694164     Delta-E=        0.000007641287 Rises=F Damp=F
 DIIS: error= 2.48D-05 at cycle  13 NSaved=  13.
 NSaved=13 IEnMin= 7 EnMin= -691.797084617150     IErMin=13 ErrMin= 2.48D-05
 ErrMax= 2.48D-05  0.00D+00 EMaxC= 1.00D-01 BMatC= 1.23D-07 BMatP= 1.05D-07
 IDIUse=1 WtCom= 1.00D+00 WtEn= 0.00D+00
 Coeff-Com:  0.667D-04-0.158D-03-0.680D-03-0.146D-02-0.254D-02 0.190D-02
 Coeff-Com:  0.527D-01 0.134D+00-0.246D+01 0.167D+01 0.183D+01-0.167D+01
 Coeff-Com:  0.145D+01
 Coeff:      0.667D-04-0.158D-03-0.680D-03-0.146D-02-0.254D-02 0.190D-02
 Coeff:      0.527D-01 0.134D+00-0.246D+01 0.167D+01 0.183D+01-0.167D+01
 Coeff:      0.145D+01
 Gap=     0.227 Goal=   None    Shift=    0.000
 RMSDP=1.34D-04 MaxDP=7.55D-03 DE= 7.64D-06 OVMax= 7.25D-05

 Cycle  14  Pass 0  IDiag  1:
 RMSU=  1.68D-05    CP:  1.05D+00  8.69D-01  1.03D+00  8.37D-01  1.60D+00
                    CP:  1.48D+00  1.90D+00  2.04D+00  2.04D+00 -3.00D+00
                    CP:  3.62D-01 -1.60D+00  2.14D+00
 E= -691.797070456261     Delta-E=        0.000006237903 Rises=F Damp=F
 DIIS: error= 2.60D-05 at cycle  14 NSaved=  14.
 NSaved=14 IEnMin= 7 EnMin= -691.797084617150     IErMin=13 ErrMin= 2.48D-05
 ErrMax= 2.60D-05  0.00D+00 EMaxC= 1.00D-01 BMatC= 5.39D-08 BMatP= 1.05D-07
 IDIUse=1 WtCom= 1.00D+00 WtEn= 0.00D+00
 Coeff-Com:  0.739D-04-0.166D-03-0.752D-03-0.157D-02-0.334D-02-0.802D-03
 Coeff-Com:  0.454D-01 0.147D+00-0.313D+01 0.304D+01 0.590D+00-0.981D+00
 Coeff-Com:  0.512D+00 0.777D+00
 Coeff:      0.739D-04-0.166D-03-0.752D-03-0.157D-02-0.334D-02-0.802D-03
 Coeff:      0.454D-01 0.147D+00-0.313D+01 0.304D+01 0.590D+00-0.981D+00
 Coeff:      0.512D+00 0.777D+00
 Gap=     0.227 Goal=   None    Shift=    0.000
 RMSDP=3.76D-05 MaxDP=1.91D-03 DE= 6.24D-06 OVMax= 4.29D-05

 Problem detected with inexpensive integrals.
 Switching to full accuracy and repeating last cycle.
 Cycle  15  Pass 1  IDiag  1:
 E= -691.796883558301     Delta-E=        0.000186897960 Rises=F Damp=F
 DIIS: error= 1.01D-03 at cycle   1 NSaved=   1.
 NSaved= 1 IEnMin= 1 EnMin= -691.796883558301     IErMin= 1 ErrMin= 1.01D-03
 ErrMax= 1.01D-03  0.00D+00 EMaxC= 1.00D-01 BMatC= 9.58D-05 BMatP= 9.58D-05
 IDIUse=3 WtCom= 9.90D-01 WtEn= 1.01D-02
 Coeff-Com:  0.100D+01
 Coeff-En:   0.100D+01
 Coeff:      0.100D+01
 Gap=     0.227 Goal=   None    Shift=    0.000
 GapD=    0.227 DampG=1.000 DampE=1.000 DampFc=1.0000 IDamp=-1.
 RMSDP=5.26D-03 MaxDP=2.80D-01 DE= 1.87D-04 OVMax= 2.84D-03

 Cycle  16  Pass 1  IDiag  1:
 RMSU=  3.50D-03    CP:  5.26D-01
 E= -691.796977722068     Delta-E=       -0.000094163767 Rises=F Damp=F
 DIIS: error= 1.68D-05 at cycle   2 NSaved=   2.
 NSaved= 2 IEnMin= 2 EnMin= -691.796977722068     IErMin= 2 ErrMin= 1.68D-05
 ErrMax= 1.68D-05  0.00D+00 EMaxC= 1.00D-01 BMatC= 3.00D-08 BMatP= 9.58D-05
 IDIUse=1 WtCom= 1.00D+00 WtEn= 0.00D+00
 Coeff-Com: -0.126D-01 0.101D+01
 Coeff:     -0.126D-01 0.101D+01
 Gap=     0.227 Goal=   None    Shift=    0.000
 RMSDP=6.40D-05 MaxDP=3.44D-03 DE=-9.42D-05 OVMax= 7.17D-05

 Cycle  17  Pass 1  IDiag  1:
 RMSU=  2.70D-05    CP:  5.20D-01  1.01D+00
 E= -691.796977761723     Delta-E=       -0.000000039655 Rises=F Damp=F
 DIIS: error= 3.19D-06 at cycle   3 NSaved=   3.
 NSaved= 3 IEnMin= 3 EnMin= -691.796977761723     IErMin= 3 ErrMin= 3.19D-06
 ErrMax= 3.19D-06  0.00D+00 EMaxC= 1.00D-01 BMatC= 8.07D-09 BMatP= 3.00D-08
 IDIUse=1 WtCom= 1.00D+00 WtEn= 0.00D+00
 Coeff-Com: -0.505D-02 0.398D+00 0.607D+00
 Coeff:     -0.505D-02 0.398D+00 0.607D+00
 Gap=     0.227 Goal=   None    Shift=    0.000
 RMSDP=9.06D-07 MaxDP=6.64D-05 DE=-3.97D-08 OVMax= 2.25D-05

 Cycle  18  Pass 1  IDiag  1:
 RMSU=  4.15D-07    CP:  5.20D-01  1.01D+00  1.01D+00
 E= -691.796977766445     Delta-E=       -0.000000004722 Rises=F Damp=F
 DIIS: error= 2.23D-06 at cycle   4 NSaved=   4.
 NSaved= 4 IEnMin= 4 EnMin= -691.796977766445     IErMin= 4 ErrMin= 2.23D-06
 ErrMax= 2.23D-06  0.00D+00 EMaxC= 1.00D-01 BMatC= 2.54D-09 BMatP= 8.07D-09
 IDIUse=1 WtCom= 1.00D+00 WtEn= 0.00D+00
 Coeff-Com: -0.111D-03 0.339D-02 0.356D+00 0.641D+00
 Coeff:     -0.111D-03 0.339D-02 0.356D+00 0.641D+00
 Gap=     0.227 Goal=   None    Shift=    0.000
 RMSDP=3.93D-07 MaxDP=2.13D-05 DE=-4.72D-09 OVMax= 1.24D-05

 Cycle  19  Pass 1  IDiag  1:
 RMSU=  1.35D-07    CP:  5.20D-01  1.01D+00  1.02D+00  1.16D+00
 E= -691.796977768553     Delta-E=       -0.000000002108 Rises=F Damp=F
 DIIS: error= 6.01D-07 at cycle   5 NSaved=   5.
 NSaved= 5 IEnMin= 5 EnMin= -691.796977768553     IErMin= 5 ErrMin= 6.01D-07
 ErrMax= 6.01D-07  0.00D+00 EMaxC= 1.00D-01 BMatC= 1.83D-10 BMatP= 2.54D-09
 IDIUse=1 WtCom= 1.00D+00 WtEn= 0.00D+00
 Coeff-Com:  0.109D-03-0.118D-01 0.188D+00 0.378D+00 0.445D+00
 Coeff:      0.109D-03-0.118D-01 0.188D+00 0.378D+00 0.445D+00
 Gap=     0.227 Goal=   None    Shift=    0.000
 RMSDP=3.57D-08 MaxDP=2.45D-06 DE=-2.11D-09 OVMax= 3.69D-06

 Cycle  20  Pass 1  IDiag  1:
 RMSU=  1.64D-08    CP:  5.20D-01  1.01D+00  1.02D+00  1.20D+00  9.99D-01
 E= -691.796977768709     Delta-E=       -0.000000000156 Rises=F Damp=F
 DIIS: error= 7.91D-08 at cycle   6 NSaved=   6.
 NSaved= 6 IEnMin= 6 EnMin= -691.796977768709     IErMin= 6 ErrMin= 7.91D-08
 ErrMax= 7.91D-08  0.00D+00 EMaxC= 1.00D-01 BMatC= 3.97D-12 BMatP= 1.83D-10
 IDIUse=1 WtCom= 1.00D+00 WtEn= 0.00D+00
 Coeff-Com:  0.566D-04-0.539D-02 0.522D-01 0.109D+00 0.184D+00 0.661D+00
 Coeff:      0.566D-04-0.539D-02 0.522D-01 0.109D+00 0.184D+00 0.661D+00
 Gap=     0.227 Goal=   None    Shift=    0.000
 RMSDP=5.86D-09 MaxDP=2.41D-07 DE=-1.56D-10 OVMax= 7.11D-07

 SCF Done:  E(RPBE1PBE) =  -691.796977769     A.U. after   20 cycles
            NFock= 20  Conv=0.59D-08     -V/T= 2.0047
 KE= 6.885848971965D+02 PE=-3.563799180230D+03 EE= 1.207171544446D+03
 Leave Link  502 at Fri May 17 11:35:27 2024, MaxMem=  6291456000 cpu:      5450.9
 (Enter /home/madghost/g09/l601.exe)
 Copying SCF densities to generalized density rwf, IOpCl= 0 IROHF=0.

 **********************************************************************

            Population analysis using the SCF density.

 **********************************************************************

 Orbital symmetries:
       Occupied  (A) (B) (A) (B) (B) (A) (B) (A) (B) (A) (B) (A)
                 (B) (A) (B) (A) (A) (B) (A) (B) (A) (B) (A) (B)
                 (A) (B) (A) (B) (A) (B) (A) (B) (B) (A) (A) (B)
                 (B) (A) (A) (B) (A) (B) (A) (B) (A) (B) (A) (B)
                 (A) (B) (A) (A) (B) (B) (A) (A) (B)
       Virtual   (B) (A) (A) (B) (A) (B) (A) (B) (A) (B) (A) (B)
                 (B) (A) (A) (B) (B) (A) (A) (B) (A) (B) (B) (A)
                 (B) (A) (B) (A) (A) (B) (B) (A) (B) (A) (B) (A)
                 (B) (A) (B) (A) (A) (B) (B) (A) (B) (A) (B) (A)
                 (A) (B) (A) (B) (B) (A) (A) (B) (B) (A) (B) (A)
                 (B) (A) (B) (A) (B) (A) (A) (B) (B) (A) (B) (B)
                 (A) (A) (A) (B) (A) (B) (A) (B) (B) (B) (A) (A)
                 (B) (A) (A) (B) (A) (B) (B) (A) (A) (B) (B) (A)
                 (B) (B) (A) (A) (B) (A) (B) (A) (B) (A) (A) (B)
                 (A) (A) (B) (B) (B) (A) (A) (B) (B) (A) (A) (A)
                 (B) (B) (B) (A) (B) (B) (A) (A) (B) (B) (A) (B)
                 (A) (A) (A) (B) (A) (B) (A) (B) (B) (A) (A) (A)
                 (B) (B) (A) (B) (A) (B) (B) (A) (B) (A) (B) (A)
                 (A) (B) (B) (A) (B) (A) (B) (A) (B) (B) (A) (B)
                 (A) (B) (A) (A) (B) (A) (B) (B) (A) (A) (B) (A)
                 (B) (B) (B) (A) (B) (A) (B) (A) (A) (A) (B) (B)
                 (A) (B) (A) (A) (A) (B) (B) (B) (A) (A) (B) (A)
                 (B) (B) (A) (A) (A) (B) (B) (A) (B) (B) (A) (A)
                 (B) (B) (A) (B) (A) (B) (A) (A) (B) (A) (B) (A)
                 (B) (A) (B) (A) (B) (A) (A) (B) (B) (A) (B) (A)
                 (B) (A) (B) (B) (A) (B) (A) (A) (A) (B) (A) (B)
                 (A) (B) (A) (B) (B) (A) (B) (A) (B) (A) (B) (A)
                 (B) (A) (B) (A) (B) (A) (A) (B) (A) (B) (A) (B)
                 (A) (B) (B) (A) (B) (A) (A) (B) (A) (B) (B) (A)
                 (B) (A) (A) (B) (B) (A) (A) (B) (B) (A) (A) (B)
                 (B) (A) (B) (A) (B) (A) (B) (A) (B) (A) (A) (B)
                 (B) (A) (B) (B) (A) (B) (A) (B) (A) (A) (B) (B)
                 (A) (A) (B) (A) (B) (B) (A) (B) (A) (A) (A) (B)
                 (A) (B) (A) (B) (A) (B) (A) (B) (A) (B) (A) (A)
                 (B) (B) (A) (B) (B) (A) (A) (B) (A) (B) (A) (B)
                 (A) (B) (B) (A) (B) (A) (B) (A) (B) (A) (B) (A)
                 (B) (A) (B) (B) (A) (A) (B) (A) (A) (A) (B) (B)
                 (A) (B) (B) (A) (B) (A) (B) (A) (B) (A) (B) (A)
                 (B) (A) (A) (B) (B) (A) (A) (B) (B) (A) (A) (B)
                 (B) (A) (B) (A) (B) (A) (B) (A) (B) (A) (B) (A)
                 (B) (A) (B) (A) (B) (B) (A) (A) (B) (A) (A) (B)
                 (B) (A) (A) (B) (B) (A) (B) (A) (A) (B) (A) (B)
                 (B) (A) (A) (B) (B) (A) (A) (B) (B) (A) (B) (A)
                 (A) (B) (B) (B) (A) (A) (A) (B) (B) (A) (B) (B)
                 (A) (B) (A) (A) (B) (A) (A) (B) (A) (B) (B) (A)
                 (B) (A) (B) (A) (A) (B) (B) (A) (B) (A) (A) (B)
                 (B) (B) (A) (A) (B) (A) (A) (B) (B) (B) (A) (B)
                 (A) (A) (B) (A) (B) (A) (A) (B) (B) (A) (B) (A)
                 (B) (A) (B) (A) (A) (B) (B) (A) (B) (A) (B) (A)
                 (B) (A) (B) (A) (A) (B) (B) (A) (A) (B) (A) (B)
                 (A) (B) (A) (A) (B) (B) (A) (B) (A) (A) (B) (A)
                 (B) (B) (A) (B) (B) (A) (A) (B) (A) (B) (A) (B)
                 (A) (B) (A) (B) (B) (A) (B) (A) (A) (B) (A) (B)
                 (A) (B) (B) (A) (B) (A) (B) (A) (B) (A) (B) (A)
                 (B) (A) (B) (A) (A) (B) (B) (A) (B) (A) (B) (A)
                 (B) (B) (A) (B) (A) (A) (B) (B) (A) (B) (A) (A)
                 (B) (B) (A) (A) (B) (A) (B) (A) (B) (A) (B) (A)
                 (B) (A) (B) (A) (B) (A) (B) (A) (B) (B) (A)
 The electronic state is 1-A.
 Alpha  occ. eigenvalues --  -19.24339 -19.24339 -10.28762 -10.28733 -10.28672
 Alpha  occ. eigenvalues --  -10.28672 -10.22837 -10.22837 -10.22703 -10.22703
 Alpha  occ. eigenvalues --  -10.22533 -10.22533 -10.22087 -10.22087 -10.21890
 Alpha  occ. eigenvalues --  -10.21890  -1.11639  -1.10273  -0.88621  -0.88129
 Alpha  occ. eigenvalues --   -0.82093  -0.77627  -0.77374  -0.76748  -0.74407
 Alpha  occ. eigenvalues --   -0.68204  -0.63501  -0.62691  -0.62154  -0.60171
 Alpha  occ. eigenvalues --   -0.56996  -0.56593  -0.51564  -0.51246  -0.50532
 Alpha  occ. eigenvalues --   -0.48473  -0.48305  -0.47706  -0.46121  -0.45388
 Alpha  occ. eigenvalues --   -0.43853  -0.43544  -0.42537  -0.40242  -0.39569
 Alpha  occ. eigenvalues --   -0.39048  -0.37770  -0.37410  -0.36913  -0.34641
 Alpha  occ. eigenvalues --   -0.34414  -0.33933  -0.33834  -0.26952  -0.26942
 Alpha  occ. eigenvalues --   -0.24025  -0.23570
 Alpha virt. eigenvalues --   -0.00829  -0.00794   0.00655   0.00908   0.04201
 Alpha virt. eigenvalues --    0.05639   0.06329   0.07704   0.08748   0.09883
 Alpha virt. eigenvalues --    0.09970   0.10053   0.10614   0.10963   0.11799
 Alpha virt. eigenvalues --    0.12042   0.13127   0.13495   0.14025   0.15700
 Alpha virt. eigenvalues --    0.15761   0.16142   0.16412   0.16477   0.19372
 Alpha virt. eigenvalues --    0.20570   0.21447   0.21482   0.21922   0.22093
 Alpha virt. eigenvalues --    0.22723   0.23229   0.23955   0.24111   0.24196
 Alpha virt. eigenvalues --    0.24761   0.25067   0.25426   0.26097   0.26190
 Alpha virt. eigenvalues --    0.27737   0.27878   0.28986   0.29448   0.30177
 Alpha virt. eigenvalues --    0.30752   0.32008   0.32429   0.32963   0.33795
 Alpha virt. eigenvalues --    0.34700   0.35312   0.35961   0.36216   0.37180
 Alpha virt. eigenvalues --    0.37261   0.37640   0.38131   0.38201   0.39417
 Alpha virt. eigenvalues --    0.40038   0.40818   0.40918   0.41473   0.42163
 Alpha virt. eigenvalues --    0.42247   0.42723   0.43215   0.43673   0.43823
 Alpha virt. eigenvalues --    0.43990   0.44547   0.44797   0.45166   0.45375
 Alpha virt. eigenvalues --    0.46657   0.47291   0.48251   0.49206   0.49440
 Alpha virt. eigenvalues --    0.49783   0.50291   0.50657   0.50843   0.51397
 Alpha virt. eigenvalues --    0.51564   0.52030   0.52213   0.52852   0.55490
 Alpha virt. eigenvalues --    0.56389   0.57134   0.59085   0.60670   0.61118
 Alpha virt. eigenvalues --    0.61934   0.62746   0.64989   0.65076   0.65685
 Alpha virt. eigenvalues --    0.66861   0.67353   0.67885   0.68128   0.69337
 Alpha virt. eigenvalues --    0.69423   0.69579   0.70322   0.71320   0.71708
 Alpha virt. eigenvalues --    0.71812   0.72671   0.73365   0.75022   0.75490
 Alpha virt. eigenvalues --    0.76730   0.76790   0.77274   0.78925   0.80403
 Alpha virt. eigenvalues --    0.80428   0.80815   0.81588   0.81753   0.82462
 Alpha virt. eigenvalues --    0.83459   0.83859   0.84596   0.85264   0.88239
 Alpha virt. eigenvalues --    0.88585   0.88797   0.88940   0.91218   0.92659
 Alpha virt. eigenvalues --    0.94114   0.94954   0.95104   0.95315   0.95725
 Alpha virt. eigenvalues --    0.97843   0.97954   0.98418   0.98734   0.99410
 Alpha virt. eigenvalues --    0.99666   1.00331   1.00368   1.01950   1.02527
 Alpha virt. eigenvalues --    1.04185   1.05789   1.06718   1.07166   1.07959
 Alpha virt. eigenvalues --    1.08612   1.09768   1.10369   1.11104   1.11958
 Alpha virt. eigenvalues --    1.13369   1.13420   1.13867   1.15336   1.15408
 Alpha virt. eigenvalues --    1.17577   1.17615   1.19495   1.19875   1.19983
 Alpha virt. eigenvalues --    1.20089   1.21632   1.22001   1.22858   1.23894
 Alpha virt. eigenvalues --    1.24776   1.24876   1.25996   1.28795   1.29328
 Alpha virt. eigenvalues --    1.29443   1.31021   1.32006   1.32042   1.33072
 Alpha virt. eigenvalues --    1.33123   1.33254   1.33322   1.33659   1.34755
 Alpha virt. eigenvalues --    1.34868   1.36513   1.37634   1.38140   1.38591
 Alpha virt. eigenvalues --    1.39132   1.42724   1.42863   1.43041   1.43670
 Alpha virt. eigenvalues --    1.43740   1.45933   1.46008   1.47078   1.47964
 Alpha virt. eigenvalues --    1.48344   1.49040   1.49922   1.50164   1.50409
 Alpha virt. eigenvalues --    1.51830   1.52179   1.52865   1.54037   1.54215
 Alpha virt. eigenvalues --    1.55352   1.55808   1.58335   1.59635   1.60298
 Alpha virt. eigenvalues --    1.60491   1.61046   1.61181   1.63074   1.63890
 Alpha virt. eigenvalues --    1.66801   1.67811   1.67861   1.68275   1.69521
 Alpha virt. eigenvalues --    1.69523   1.70698   1.71976   1.72902   1.74899
 Alpha virt. eigenvalues --    1.75072   1.76368   1.80615   1.81659   1.83640
 Alpha virt. eigenvalues --    1.84084   1.85338   1.86396   1.90642   1.92891
 Alpha virt. eigenvalues --    1.93374   1.93599   1.95232   1.96984   1.97702
 Alpha virt. eigenvalues --    1.99130   1.99798   2.00107   2.01057   2.01709
 Alpha virt. eigenvalues --    2.01931   2.03747   2.04801   2.07463   2.07667
 Alpha virt. eigenvalues --    2.09295   2.09717   2.12395   2.15117   2.16215
 Alpha virt. eigenvalues --    2.16607   2.18656   2.21153   2.22099   2.22712
 Alpha virt. eigenvalues --    2.26919   2.27486   2.27556   2.28796   2.30200
 Alpha virt. eigenvalues --    2.30421   2.33723   2.35444   2.36543   2.36606
 Alpha virt. eigenvalues --    2.38611   2.38797   2.39193   2.39833   2.42785
 Alpha virt. eigenvalues --    2.44229   2.46782   2.48115   2.49048   2.49887
 Alpha virt. eigenvalues --    2.51218   2.53983   2.58398   2.58977   2.63156
 Alpha virt. eigenvalues --    2.64231   2.65053   2.65065   2.66129   2.66518
 Alpha virt. eigenvalues --    2.68064   2.69078   2.70027   2.71052   2.72200
 Alpha virt. eigenvalues --    2.74207   2.74930   2.75920   2.76515   2.76752
 Alpha virt. eigenvalues --    2.78312   2.78444   2.78582   2.79745   2.80499
 Alpha virt. eigenvalues --    2.81375   2.81501   2.82026   2.84080   2.84709
 Alpha virt. eigenvalues --    2.84922   2.86018   2.86127   2.88583   2.88691
 Alpha virt. eigenvalues --    2.90716   2.90950   2.91107   2.91824   2.92594
 Alpha virt. eigenvalues --    2.92729   2.93023   2.93266   2.96775   2.97814
 Alpha virt. eigenvalues --    2.97976   2.98880   2.99140   3.00422   3.02205
 Alpha virt. eigenvalues --    3.04155   3.04232   3.04921   3.04921   3.05511
 Alpha virt. eigenvalues --    3.05664   3.06017   3.06837   3.06899   3.07259
 Alpha virt. eigenvalues --    3.09182   3.09523   3.10561   3.10721   3.11164
 Alpha virt. eigenvalues --    3.12848   3.12890   3.13715   3.13978   3.15033
 Alpha virt. eigenvalues --    3.15520   3.16093   3.16399   3.17073   3.17422
 Alpha virt. eigenvalues --    3.18229   3.20174   3.20976   3.21112   3.21977
 Alpha virt. eigenvalues --    3.22068   3.23806   3.23879   3.25957   3.27542
 Alpha virt. eigenvalues --    3.28493   3.28906   3.29426   3.29681   3.32092
 Alpha virt. eigenvalues --    3.33427   3.33641   3.33697   3.34521   3.34637
 Alpha virt. eigenvalues --    3.34869   3.35673   3.35943   3.36323   3.37011
 Alpha virt. eigenvalues --    3.37136   3.38782   3.39056   3.40710   3.40783
 Alpha virt. eigenvalues --    3.42379   3.43143   3.43536   3.43875   3.44020
 Alpha virt. eigenvalues --    3.45119   3.46572   3.47997   3.48162   3.49736
 Alpha virt. eigenvalues --    3.51214   3.51559   3.52503   3.53712   3.53948
 Alpha virt. eigenvalues --    3.54672   3.56585   3.57202   3.57613   3.59985
 Alpha virt. eigenvalues --    3.60424   3.62252   3.62383   3.64101   3.67057
 Alpha virt. eigenvalues --    3.67152   3.67732   3.68568   3.69504   3.70501
 Alpha virt. eigenvalues --    3.71382   3.71449   3.75282   3.75567   3.76716
 Alpha virt. eigenvalues --    3.77393   3.78124   3.78795   3.78837   3.78999
 Alpha virt. eigenvalues --    3.79199   3.79684   3.80493   3.81892   3.82133
 Alpha virt. eigenvalues --    3.82531   3.83632   3.83946   3.85631   3.85657
 Alpha virt. eigenvalues --    3.86084   3.86479   3.86684   3.88138   3.88468
 Alpha virt. eigenvalues --    3.89957   3.90176   3.91944   3.91968   3.93849
 Alpha virt. eigenvalues --    3.95522   3.97934   3.97990   3.99070   3.99496
 Alpha virt. eigenvalues --    4.00880   4.02439   4.04851   4.06091   4.06725
 Alpha virt. eigenvalues --    4.07672   4.09185   4.09392   4.09669   4.10125
 Alpha virt. eigenvalues --    4.11926   4.12353   4.15234   4.15666   4.18007
 Alpha virt. eigenvalues --    4.18693   4.18946   4.18961   4.20120   4.20808
 Alpha virt. eigenvalues --    4.22420   4.22908   4.23314   4.23824   4.25180
 Alpha virt. eigenvalues --    4.25238   4.26048   4.26715   4.27939   4.28391
 Alpha virt. eigenvalues --    4.29499   4.29795   4.31306   4.32425   4.32450
 Alpha virt. eigenvalues --    4.32698   4.33338   4.34608   4.36613   4.37572
 Alpha virt. eigenvalues --    4.39587   4.40000   4.40780   4.43904   4.44257
 Alpha virt. eigenvalues --    4.46958   4.49302   4.50286   4.52910   4.55906
 Alpha virt. eigenvalues --    4.56494   4.56788   4.59764   4.60809   4.61990
 Alpha virt. eigenvalues --    4.65838   4.66388   4.66690   4.67103   4.68062
 Alpha virt. eigenvalues --    4.69626   4.69702   4.70280   4.70687   4.72481
 Alpha virt. eigenvalues --    4.73016   4.75764   4.75834   4.76584   4.76641
 Alpha virt. eigenvalues --    4.77773   4.78633   4.79948   4.79977   4.81316
 Alpha virt. eigenvalues --    4.82750   4.84214   4.85318   4.85993   4.86624
 Alpha virt. eigenvalues --    4.88702   4.88869   4.94633   4.98805   4.99381
 Alpha virt. eigenvalues --    4.99985   5.00880   5.01047   5.04787   5.06630
 Alpha virt. eigenvalues --    5.08009   5.08923   5.10239   5.12785   5.13683
 Alpha virt. eigenvalues --    5.18182   5.21750   5.21853   5.22875   5.22931
 Alpha virt. eigenvalues --    5.30172   5.31817   5.32427   5.32721   5.33628
 Alpha virt. eigenvalues --    5.35241   5.36282   5.36383   5.36734   5.38689
 Alpha virt. eigenvalues --    5.40482   5.40800   5.43720   5.43805   5.45354
 Alpha virt. eigenvalues --    5.45923   5.48730   5.48977   5.57662   5.59553
 Alpha virt. eigenvalues --    5.61882   5.63206   5.64019   5.64341   5.65862
 Alpha virt. eigenvalues --    5.69775   5.71026   5.73877   5.76106   5.81756
 Alpha virt. eigenvalues --    5.82284   5.90762   5.94279   5.96273   5.98895
 Alpha virt. eigenvalues --    6.02083   6.02489   6.06895   6.15019   6.15267
 Alpha virt. eigenvalues --    6.18108   6.29346   6.30557   6.49460   6.49556
 Alpha virt. eigenvalues --    6.53047   6.56082   6.77697   6.79104   6.87081
 Alpha virt. eigenvalues --    6.87623   6.95227   6.96439   7.00233   7.00651
 Alpha virt. eigenvalues --    7.39581   7.43241   7.52169   7.56162  22.67302
 Alpha virt. eigenvalues --   22.75156  23.19977  23.21417  23.27967  23.28032
 Alpha virt. eigenvalues --   23.30436  23.31891  23.38106  23.38328  23.44321
 Alpha virt. eigenvalues --   23.60629  24.16220  24.16506  44.60750  44.64239
          Condensed to atoms (all electrons):
               1          2          3          4          5          6
     1  C    4.729592   0.387557   0.403243   0.362742  -0.033576  -0.006606
     2  H    0.387557   0.627891  -0.047510  -0.006606  -0.005609  -0.002179
     3  H    0.403243  -0.047510   0.619561  -0.033576   0.012546  -0.005609
     4  C    0.362742  -0.006606  -0.033576   4.729592   0.403243   0.387557
     5  H   -0.033576  -0.005609   0.012546   0.403243   0.619561  -0.047510
     6  H   -0.006606  -0.002179  -0.005609   0.387557  -0.047510   0.627891
     7  O    0.285929  -0.044484  -0.043203  -0.053069   0.006781   0.003289
     8  O   -0.053069   0.003289   0.006781   0.285929  -0.043203  -0.044484
     9  C   -0.043659  -0.005356  -0.005199  -0.000648  -0.001240   0.000872
    10  C   -0.007408   0.002435   0.001602  -0.000672  -0.000099   0.000140
    11  C   -0.027324   0.006467   0.007111  -0.000699  -0.000444   0.000480
    12  C    0.000529  -0.000153  -0.000122   0.000132   0.000078  -0.000024
    13  C    0.001426  -0.001410  -0.001245  -0.000142   0.000026  -0.000059
    14  C   -0.000621   0.000035  -0.000003  -0.000011  -0.000013   0.000010
    15  H   -0.001782   0.000180   0.000161  -0.000103  -0.000024   0.000034
    16  H    0.003583   0.000978   0.000616   0.000072  -0.000098   0.000374
    17  H    0.000046  -0.000001   0.000000  -0.000002   0.000000   0.000000
    18  H   -0.000115   0.000015   0.000014   0.000004   0.000000   0.000000
    19  H   -0.000001   0.000001   0.000001   0.000000   0.000000   0.000000
    20  C   -0.000648   0.000872  -0.001240  -0.043659  -0.005199  -0.005356
    21  C   -0.000699   0.000480  -0.000444  -0.027324   0.007111   0.006467
    22  C   -0.000672   0.000140  -0.000099  -0.007408   0.001602   0.002435
    23  C   -0.000142  -0.000059   0.000026   0.001426  -0.001245  -0.001410
    24  C    0.000132  -0.000024   0.000078   0.000529  -0.000122  -0.000153
    25  C   -0.000011   0.000010  -0.000013  -0.000621  -0.000003   0.000035
    26  H    0.000072   0.000374  -0.000098   0.003583   0.000616   0.000978
    27  H   -0.000103   0.000034  -0.000024  -0.001782   0.000161   0.000180
    28  H    0.000004   0.000000   0.000000  -0.000115   0.000014   0.000015
    29  H   -0.000002   0.000000   0.000000   0.000046   0.000000  -0.000001
    30  H    0.000000   0.000000   0.000000  -0.000001   0.000001   0.000001
               7          8          9         10         11         12
     1  C    0.285929  -0.053069  -0.043659  -0.007408  -0.027324   0.000529
     2  H   -0.044484   0.003289  -0.005356   0.002435   0.006467  -0.000153
     3  H   -0.043203   0.006781  -0.005199   0.001602   0.007111  -0.000122
     4  C   -0.053069   0.285929  -0.000648  -0.000672  -0.000699   0.000132
     5  H    0.006781  -0.043203  -0.001240  -0.000099  -0.000444   0.000078
     6  H    0.003289  -0.044484   0.000872   0.000140   0.000480  -0.000024
     7  O    7.814078  -0.005363   0.373838  -0.052745  -0.078262   0.003164
     8  O   -0.005363   7.814078   0.002909   0.000107   0.000220  -0.000049
     9  C    0.373838   0.002909   4.887961   0.380184   0.245782   0.028989
    10  C   -0.052745   0.000107   0.380184   4.973295   0.104643   0.493913
    11  C   -0.078262   0.000220   0.245782   0.104643   5.206826  -0.108764
    12  C    0.003164  -0.000049   0.028989   0.493913  -0.108764   4.817788
    13  C    0.010368  -0.000017   0.093248  -0.106424   0.357527   0.007742
    14  C   -0.000868   0.000006  -0.100569  -0.004667   0.007980   0.503429
    15  H    0.010310   0.000168  -0.063767   0.427716   0.019619  -0.039683
    16  H   -0.007608   0.000023  -0.050691   0.004713   0.427720   0.000269
    17  H   -0.000174   0.000000   0.011298  -0.034884  -0.002925   0.415202
    18  H   -0.000175   0.000000  -0.000655   0.003211  -0.018368   0.002447
    19  H    0.000016   0.000000  -0.000773   0.006216   0.008985  -0.030660
    20  C    0.002909   0.373838   0.000182   0.000039  -0.000002  -0.000003
    21  C    0.000220  -0.078262  -0.000002  -0.000001  -0.000003   0.000000
    22  C    0.000107  -0.052745   0.000039   0.000007  -0.000001   0.000000
    23  C   -0.000017   0.010368  -0.000006   0.000000   0.000000   0.000000
    24  C   -0.000049   0.003164  -0.000003   0.000000   0.000000   0.000000
    25  C    0.000006  -0.000868   0.000001   0.000000   0.000000   0.000000
    26  H    0.000023  -0.007608   0.000011   0.000001   0.000002   0.000000
    27  H    0.000168   0.010310   0.000030  -0.000002   0.000001  -0.000001
    28  H    0.000000  -0.000175   0.000000   0.000000   0.000000   0.000000
    29  H    0.000000  -0.000174   0.000000   0.000000   0.000000   0.000000
    30  H    0.000000   0.000016   0.000000   0.000000   0.000000   0.000000
              13         14         15         16         17         18
     1  C    0.001426  -0.000621  -0.001782   0.003583   0.000046  -0.000115
     2  H   -0.001410   0.000035   0.000180   0.000978  -0.000001   0.000015
     3  H   -0.001245  -0.000003   0.000161   0.000616   0.000000   0.000014
     4  C   -0.000142  -0.000011  -0.000103   0.000072  -0.000002   0.000004
     5  H    0.000026  -0.000013  -0.000024  -0.000098   0.000000   0.000000
     6  H   -0.000059   0.000010   0.000034   0.000374   0.000000   0.000000
     7  O    0.010368  -0.000868   0.010310  -0.007608  -0.000174  -0.000175
     8  O   -0.000017   0.000006   0.000168   0.000023   0.000000   0.000000
     9  C    0.093248  -0.100569  -0.063767  -0.050691   0.011298  -0.000655
    10  C   -0.106424  -0.004667   0.427716   0.004713  -0.034884   0.003211
    11  C    0.357527   0.007980   0.019619   0.427720  -0.002925  -0.018368
    12  C    0.007742   0.503429  -0.039683   0.000269   0.415202   0.002447
    13  C    4.941303   0.512361  -0.005317  -0.021636   0.008965   0.395348
    14  C    0.512361   4.838631   0.011975   0.005681  -0.036324  -0.019465
    15  H   -0.005317   0.011975   0.541936  -0.000188  -0.007312   0.000114
    16  H   -0.021636   0.005681  -0.000188   0.547498   0.000069  -0.003218
    17  H    0.008965  -0.036324  -0.007312   0.000069   0.538093  -0.000527
    18  H    0.395348  -0.019465   0.000114  -0.003218  -0.000527   0.532067
    19  H   -0.031379   0.410190  -0.000299  -0.000402  -0.004131  -0.003757
    20  C   -0.000006   0.000001   0.000030   0.000011   0.000000   0.000000
    21  C    0.000000   0.000000   0.000001   0.000002   0.000000   0.000000
    22  C    0.000000   0.000000  -0.000002   0.000001   0.000000   0.000000
    23  C    0.000000   0.000000   0.000000   0.000000   0.000000   0.000000
    24  C    0.000000   0.000000  -0.000001   0.000000   0.000000   0.000000
    25  C    0.000000   0.000000   0.000000   0.000000   0.000000   0.000000
    26  H    0.000000   0.000000   0.000001   0.000000   0.000000   0.000000
    27  H    0.000000   0.000000   0.000005   0.000001   0.000000   0.000000
    28  H    0.000000   0.000000   0.000000   0.000000   0.000000   0.000000
    29  H    0.000000   0.000000   0.000000   0.000000   0.000000   0.000000
    30  H    0.000000   0.000000   0.000000   0.000000   0.000000   0.000000
              19         20         21         22         23         24
     1  C   -0.000001  -0.000648  -0.000699  -0.000672  -0.000142   0.000132
     2  H    0.000001   0.000872   0.000480   0.000140  -0.000059  -0.000024
     3  H    0.000001  -0.001240  -0.000444  -0.000099   0.000026   0.000078
     4  C    0.000000  -0.043659  -0.027324  -0.007408   0.001426   0.000529
     5  H    0.000000  -0.005199   0.007111   0.001602  -0.001245  -0.000122
     6  H    0.000000  -0.005356   0.006467   0.002435  -0.001410  -0.000153
     7  O    0.000016   0.002909   0.000220   0.000107  -0.000017  -0.000049
     8  O    0.000000   0.373838  -0.078262  -0.052745   0.010368   0.003164
     9  C   -0.000773   0.000182  -0.000002   0.000039  -0.000006  -0.000003
    10  C    0.006216   0.000039  -0.000001   0.000007   0.000000   0.000000
    11  C    0.008985  -0.000002  -0.000003  -0.000001   0.000000   0.000000
    12  C   -0.030660  -0.000003   0.000000   0.000000   0.000000   0.000000
    13  C   -0.031379  -0.000006   0.000000   0.000000   0.000000   0.000000
    14  C    0.410190   0.000001   0.000000   0.000000   0.000000   0.000000
    15  H   -0.000299   0.000030   0.000001  -0.000002   0.000000  -0.000001
    16  H   -0.000402   0.000011   0.000002   0.000001   0.000000   0.000000
    17  H   -0.004131   0.000000   0.000000   0.000000   0.000000   0.000000
    18  H   -0.003757   0.000000   0.000000   0.000000   0.000000   0.000000
    19  H    0.532468   0.000000   0.000000   0.000000   0.000000   0.000000
    20  C    0.000000   4.887961   0.245782   0.380184   0.093248   0.028989
    21  C    0.000000   0.245782   5.206826   0.104643   0.357527  -0.108764
    22  C    0.000000   0.380184   0.104643   4.973295  -0.106424   0.493913
    23  C    0.000000   0.093248   0.357527  -0.106424   4.941303   0.007742
    24  C    0.000000   0.028989  -0.108764   0.493913   0.007742   4.817788
    25  C    0.000000  -0.100569   0.007980  -0.004667   0.512361   0.503429
    26  H    0.000000  -0.050691   0.427720   0.004713  -0.021636   0.000269
    27  H    0.000000  -0.063767   0.019619   0.427716  -0.005317  -0.039683
    28  H    0.000000  -0.000655  -0.018368   0.003211   0.395348   0.002447
    29  H    0.000000   0.011298  -0.002925  -0.034884   0.008965   0.415202
    30  H    0.000000  -0.000773   0.008985   0.006216  -0.031379  -0.030660
              25         26         27         28         29         30
     1  C   -0.000011   0.000072  -0.000103   0.000004  -0.000002   0.000000
     2  H    0.000010   0.000374   0.000034   0.000000   0.000000   0.000000
     3  H   -0.000013  -0.000098  -0.000024   0.000000   0.000000   0.000000
     4  C   -0.000621   0.003583  -0.001782  -0.000115   0.000046  -0.000001
     5  H   -0.000003   0.000616   0.000161   0.000014   0.000000   0.000001
     6  H    0.000035   0.000978   0.000180   0.000015  -0.000001   0.000001
     7  O    0.000006   0.000023   0.000168   0.000000   0.000000   0.000000
     8  O   -0.000868  -0.007608   0.010310  -0.000175  -0.000174   0.000016
     9  C    0.000001   0.000011   0.000030   0.000000   0.000000   0.000000
    10  C    0.000000   0.000001  -0.000002   0.000000   0.000000   0.000000
    11  C    0.000000   0.000002   0.000001   0.000000   0.000000   0.000000
    12  C    0.000000   0.000000  -0.000001   0.000000   0.000000   0.000000
    13  C    0.000000   0.000000   0.000000   0.000000   0.000000   0.000000
    14  C    0.000000   0.000000   0.000000   0.000000   0.000000   0.000000
    15  H    0.000000   0.000001   0.000005   0.000000   0.000000   0.000000
    16  H    0.000000   0.000000   0.000001   0.000000   0.000000   0.000000
    17  H    0.000000   0.000000   0.000000   0.000000   0.000000   0.000000
    18  H    0.000000   0.000000   0.000000   0.000000   0.000000   0.000000
    19  H    0.000000   0.000000   0.000000   0.000000   0.000000   0.000000
    20  C   -0.100569  -0.050691  -0.063767  -0.000655   0.011298  -0.000773
    21  C    0.007980   0.427720   0.019619  -0.018368  -0.002925   0.008985
    22  C   -0.004667   0.004713   0.427716   0.003211  -0.034884   0.006216
    23  C    0.512361  -0.021636  -0.005317   0.395348   0.008965  -0.031379
    24  C    0.503429   0.000269  -0.039683   0.002447   0.415202  -0.030660
    25  C    4.838631   0.005681   0.011975  -0.019465  -0.036324   0.410190
    26  H    0.005681   0.547498  -0.000188  -0.003218   0.000069  -0.000402
    27  H    0.011975  -0.000188   0.541936   0.000114  -0.007312  -0.000299
    28  H   -0.019465  -0.003218   0.000114   0.532067  -0.000527  -0.003757
    29  H   -0.036324   0.000069  -0.007312  -0.000527   0.538093  -0.004131
    30  H    0.410190  -0.000402  -0.000299  -0.003757  -0.004131   0.532468
 Mulliken charges:
               1
     1  C    0.001584
     2  H    0.082635
     3  H    0.086645
     4  C    0.001584
     5  H    0.086645
     6  H    0.082635
     7  O   -0.225188
     8  O   -0.225188
     9  C    0.247225
    10  C   -0.191320
    11  C   -0.156570
    12  C   -0.094225
    13  C   -0.160680
    14  C   -0.127756
    15  H    0.106227
    16  H    0.092233
    17  H    0.112607
    18  H    0.113058
    19  H    0.113525
    20  C    0.247225
    21  C   -0.156570
    22  C   -0.191320
    23  C   -0.160680
    24  C   -0.094225
    25  C   -0.127756
    26  H    0.092233
    27  H    0.106227
    28  H    0.113058
    29  H    0.112607
    30  H    0.113525
 Sum of Mulliken charges =   0.00000
 Mulliken charges with hydrogens summed into heavy atoms:
               1
     1  C    0.170864
     4  C    0.170864
     7  O   -0.225188
     8  O   -0.225188
     9  C    0.247225
    10  C   -0.085094
    11  C   -0.064337
    12  C    0.018382
    13  C   -0.047621
    14  C   -0.014231
    20  C    0.247225
    21  C   -0.064337
    22  C   -0.085094
    23  C   -0.047621
    24  C    0.018382
    25  C   -0.014231
 Electronic spatial extent (au):  <R**2>=           6084.8644
 Charge=              0.0000 electrons
 Dipole moment (field-independent basis, Debye):
    X=              0.0000    Y=              0.0000    Z=             -1.7139  Tot=              1.7139
 Quadrupole moment (field-independent basis, Debye-Ang):
   XX=            -94.9493   YY=            -88.9286   ZZ=            -86.9104
   XY=              3.2900   XZ=              0.0000   YZ=              0.0000
 Traceless Quadrupole moment (field-independent basis, Debye-Ang):
   XX=             -4.6865   YY=              1.3342   ZZ=              3.3524
   XY=              3.2900   XZ=              0.0000   YZ=              0.0000
 Octapole moment (field-independent basis, Debye-Ang**2):
  XXX=              0.0000  YYY=              0.0000  ZZZ=             -6.0187  XYY=              0.0000
  XXY=              0.0000  XXZ=             -1.3057  XZZ=              0.0000  YZZ=              0.0000
  YYZ=             16.6504  XYZ=            -28.9874
 Hexadecapole moment (field-independent basis, Debye-Ang**3):
 XXXX=           -339.5152 YYYY=          -7053.9496 ZZZZ=           -628.3836 XXXY=             35.7821
 XXXZ=              0.0000 YYYX=            163.0537 YYYZ=              0.0000 ZZZX=              0.0000
 ZZZY=              0.0000 XXYY=          -1360.7961 XXZZ=           -146.5575 YYZZ=          -1311.5628
 XXYZ=              0.0000 YYXZ=              0.0000 ZZXY=            -12.7279
 N-N= 9.762457608194D+02 E-N=-3.563799156976D+03  KE= 6.885848971965D+02
 Symmetry A    KE= 3.454680112685D+02
 Symmetry B    KE= 3.431168859280D+02
 No NMR shielding tensors so no spin-rotation constants.
 Leave Link  601 at Fri May 17 11:35:30 2024, MaxMem=  6291456000 cpu:        62.8
 (Enter /home/madghost/g09/l607.exe)
 ******************************Gaussian NBO Version 3.1******************************
             N A T U R A L   A T O M I C   O R B I T A L   A N D
          N A T U R A L   B O N D   O R B I T A L   A N A L Y S I S
 ******************************Gaussian NBO Version 3.1******************************

       /RESON  / : Allow strongly delocalized NBO set
       /E2PERT / : Analyze NBO Fock matrix
                   Print threshold set to  0.05
       /PLOT   / : Write information for the orbital plotter
       /ARCHIVE/ : Write the archive file to LFN 47
       /BNDIDX / : Print bond indices based on the NAO density matrix
       /FILE   / : Set to JOB118                                              

 Analyzing the SCF density

 Job title: s                                                               

 Storage needed:   1440014 in NPA,   1918463 in NBO,   1440952 in NLMO (6291451200 available)


 NATURAL POPULATIONS:  Natural atomic orbital occupancies 
                                                          
   NAO  Atom  No  lang   Type(AO)    Occupancy      Energy
 ----------------------------------------------------------
     1    C    1  S      Cor( 1S)     1.99923     -10.15819
     2    C    1  S      Val( 2S)     1.03332      -0.31040
     3    C    1  S      Ryd( 3S)     0.00359       1.49857
     4    C    1  S      Ryd( 4S)     0.00007       1.90221
     5    C    1  S      Ryd( 5S)     0.00000      21.40216
     6    C    1  px     Val( 2p)     1.10540      -0.12499
     7    C    1  px     Ryd( 4p)     0.00171       1.16869
     8    C    1  px     Ryd( 3p)     0.00024       1.11628
     9    C    1  py     Val( 2p)     0.99695      -0.11923
    10    C    1  py     Ryd( 3p)     0.00130       1.33016
    11    C    1  py     Ryd( 4p)     0.00016       1.68124
    12    C    1  pz     Val( 2p)     0.94727      -0.11090
    13    C    1  pz     Ryd( 3p)     0.00218       1.18198
    14    C    1  pz     Ryd( 4p)     0.00018       1.31034
    15    C    1  dxy    Ryd( 3d)     0.00077       1.62931
[...]
   20      25      29     0.0039125       0.1970757
   20      25      30     0.0667418       0.0714409
   20      25      31    -0.0033355      -0.0280750
   20      25      33    -0.0657213      -0.0428907
   20      25      34    -0.0034935      -0.0139116
   20      25      36    -0.0033196      -0.0148936
   20      25      57     0.0125765       0.0417222
   20      26      26    -0.0026392      -0.1109431
   20      26      28     0.0066905       0.0205287
   20      27      24    -0.0023886      -0.1211010
   20      27      31     0.0070164       0.0290884
   20      28      24     0.0024222       0.0624899
   20      28      34    -0.0034935      -0.0034950
   20      29      26     0.0025334       0.0589198
   20      29      36    -0.0033196      -0.0049419
   20      30      27     0.0026849       0.0534796
   20      30      29     0.0026076       0.0610672
   21      22      24     0.0041490       0.1520339
   21      22      25     0.0697947       0.1133145
   21      22      26     0.0038218       0.2198348
   21      22      28    -0.0034422      -0.0598819
   21      22      30    -0.0383529      -0.0740196
   21      22      31    -0.0037625      -0.0552259
   21      22      33    -0.0505209      -0.0869782
   21      22      37    -0.0032172      -0.0820953
   21      22      56    -0.0025008      -0.3639997
   21      22      57     0.0180595       0.0626215
   21      23      24     0.0044968       0.2561386
   21      23      25     0.1557970       0.4157588
   21      23      27     0.9770587       0.8051656
   21      23      28     0.0056428       0.1665303
   21      23      30     0.0383529       0.3326645
   21      23      32     0.0041138       0.3084575
   21      23      33     0.0616541       0.4401173
   21      23      34     0.0058507       0.1846041
   21      23      37    -0.0034843      -0.4256008
   21      24      25    -0.0652091      -0.0433324
   21      24      26     0.0038218       0.1480810
   21      24      30    -0.0383529      -0.0407734
   21      24      31    -0.0037625      -0.0492991
   21      24      32     0.0040274       0.2173843
   21      24      33     0.0616541       0.0802766
   21      24      34    -0.0032144      -0.0575034
   21      24      37    -0.0034843      -0.0536962
   21      25      25    -0.0527978      -0.0693477
   21      25      27     0.0039522       0.2263036
   21      25      28    -0.0030634      -0.0607082
   21      25      30    -0.0383529      -0.0864051
   21      25      31    -0.0033355      -0.0625229
   21      25      32     0.0041138       0.2152140
   21      25      33     0.0616541       0.1221675
   21      25      34     0.0058507       0.3183544
   21      25      37    -0.0034843      -0.0665340
   21      25      57    -0.0125765      -0.0538515
   21      26      26    -0.0026392      -0.4862322
   21      26      28     0.7704788       0.8142352
   21      26      32    -0.0026990      -0.5093447
   21      27      24    -0.0023886      -0.0078210
   21      27      31     0.0037625       0.0004559
   21      28      24    -0.0024222      -0.1209272
   21      28      34     0.0058507       0.0434059
   21      29      26     0.0025334       0.0482489
   21      29      32     0.0027500       0.0683620
   21      30      27     0.0026849       0.0703709
   21      30      37    -0.0034843      -0.0014356
   22      23      24     0.0041490       0.1200308
   22      23      25     0.0697947       0.0726403
   22      23      28    -0.0034422      -0.0506940
   22      23      30    -0.0659888      -0.0412155
   22      23      33    -0.0505209      -0.0378832
   22      23      35     0.0041404       0.2250778
   22      23      36    -0.0030630      -0.0547177
   22      23      37    -0.0032172      -0.0461259
   22      24      25    -0.0652091      -0.3740131
   22      24      26     0.0039491       0.2753419
   22      24      29     0.9816834       0.8092295
   22      24      30     0.7746522       0.4059710
   22      24      31     0.0062038       0.1241922
   22      24      33    -0.0505209      -0.3543124
   22      24      35     0.0042923       0.3068016
   22      24      36     0.0060292       0.1918715
   22      24      37    -0.0032172      -0.4088089
   22      25      25    -0.0527978      -0.0791690
   22      25      28    -0.0030634      -0.0674037
   22      25      29     0.0039125       0.2162633
   22      25      30     0.0667418       0.1148547
   22      25      31    -0.0033355      -0.0640153
   22      25      33    -0.0505209      -0.0691459
   22      25      35     0.0042923       0.2053902
   22      25      36     0.0057085       0.3094918
   22      25      37    -0.0032172      -0.0611268
   22      25      57    -0.0125765      -0.0584110
   22      26      26     0.0026392       0.0020795
   22      26      28     0.0034422       0.0029214
   22      27      24    -0.0023886      -0.4546619
   22      27      31     0.7630387       0.8108998
   22      27      35    -0.0028419      -0.5251317
   22      28      24     0.0024222       0.0467847
   22      28      35     0.0028882       0.0709918
   22      29      26    -0.0025334      -0.1161174
   22      29      36     0.0060292       0.0476371
   22      30      29     0.0026076       0.0673785
   22      30      37    -0.0032172      -0.0010967
   23      24      25    -0.0652091      -0.0889117
   23      24      30    -0.0659888      -0.0791423
   23      24      32     0.0040274       0.2331925
   23      24      33     0.1466697       0.1153498
   23      24      34    -0.0032144      -0.0737405
   23      24      35     0.0041404       0.2347007
   23      24      36    -0.0030630      -0.0732832
   23      24      37     0.0058089       0.2833303
   23      25      25    -0.0527978      -0.3546414
   23      25      27     0.0039522       0.3220610
   23      25      28    -0.0030634      -0.3893367
   23      25      30    -0.0659888      -0.3733159
   23      25      32     0.9890595       0.8071986
   23      25      33     0.7671112       0.4079061
   23      25      34     0.0059728       0.1612283
   23      25      35     0.0041404       0.3371570
   23      25      36    -0.0030630      -0.4039509
   23      25      37     0.0062640       0.1463196
   23      26      28     0.0056428       0.0550235
   23      26      32    -0.0026990      -0.1163923
   23      27      24     0.0023886       0.0043391
   23      27      35     0.0028419       0.0201423
   23      28      24    -0.0024222      -0.5425003
   23      28      34     0.7751932       0.8102857
   23      28      35    -0.0028882      -0.5776531
   23      29      32     0.0027500       0.0687646
   23      29      36    -0.0030630      -0.0044362
   23      30      27    -0.0026849      -0.1169557
   23      30      37     0.0062640       0.0202383
   24      25      25     0.0527978       0.3283344
   24      25      29     0.0039125       0.3180703
   24      25      30     0.0667418       0.4296763
   24      25      31    -0.0033355      -0.4146730
   24      25      32     0.0040274       0.3291648
   24      25      33     0.1466697       0.4193373
   24      25      34    -0.0032144      -0.4131549
   24      25      35     0.9903657       0.8062661
   24      25      36     0.0057085       0.1637689
   24      25      37     0.0058089       0.1373078
   24      26      26     0.0026392       0.0117679
   24      26      32     0.0026990       0.0225069
   24      27      31     0.0062038       0.0193551
   24      27      35    -0.0028419      -0.1153301
   24      28      34    -0.0032144      -0.0065241
   24      28      35     0.0028882       0.0701223
   24      29      26    -0.0025334      -0.5659069
   24      29      32    -0.0027500      -0.5738361
   24      29      36     0.7740188       0.8110659
   24      30      29    -0.0026076      -0.1160746
   24      30      37     0.0058089       0.0117088
   25      26      28     0.0030634       0.0023044
   25      26      32     0.0026990       0.0117886
   25      27      31     0.0033355       0.0004324
   25      27      35     0.0028419       0.0081400
   25      28      34     0.0059728       0.0222541
   25      28      35    -0.0028882      -0.1125957
   25      29      32    -0.0027500      -0.1118209
   25      29      36     0.0057085       0.0245709
   25      30      27    -0.0026849      -0.5837781
   25      30      29    -0.0026076      -0.5821682
   25      30      37     0.7736174       0.8109767
   26      29      26    -0.0025334      -0.0009228
   26      29      32    -0.0026990      -0.0005583
   27      28      24    -0.0023886      -0.0016412
   27      28      35    -0.0028419      -0.0007540


 Atom-Atom Net Linear NLMO/NPA Bond Orders:                                    

     Atom    1       2       3       4       5       6       7       8       9
     ---- ------  ------  ------  ------  ------  ------  ------  ------  ------
   1.  C  0.0000  0.7849  0.7742  1.0122 -0.0011  0.0046  0.6894 -0.0154  0.0224
   2.  H  0.7849  0.0000 -0.0088  0.0046 -0.0009  0.0009 -0.0181  0.0060 -0.0148
   3.  H  0.7742 -0.0088  0.0000 -0.0011 -0.0087 -0.0009 -0.0178  0.0006 -0.0149
   4.  C  1.0122  0.0046 -0.0011  0.0000  0.7742  0.7849 -0.0154  0.6894  0.0031
   5.  H -0.0011 -0.0009 -0.0087  0.7742  0.0000 -0.0088  0.0006 -0.0178 -0.0005
   6.  H  0.0046  0.0009 -0.0009  0.7849 -0.0088  0.0000  0.0060 -0.0181 -0.0008
   7.  O  0.6894 -0.0181 -0.0178 -0.0154  0.0006  0.0060  0.0000  0.0029  0.7465
   8.  O -0.0154  0.0060  0.0006  0.6894 -0.0178 -0.0181  0.0029  0.0000 -0.0036
   9.  C  0.0224 -0.0148 -0.0149  0.0031 -0.0005 -0.0008  0.7465 -0.0036  0.0000
  10.  C -0.0047  0.0102 -0.0085 -0.0007  0.0002 -0.0012 -0.0238  0.0000  1.2320
  11.  C -0.0243  0.0137  0.0047 -0.0033  0.0012 -0.0013 -0.0418  0.0003  1.5504
  12.  C -0.0084  0.0012 -0.0001 -0.0027 -0.0004  0.0005  0.0085  0.0004  0.0241
  13.  C  0.0000  0.0003  0.0001 -0.0019 -0.0003 -0.0005  0.0060 -0.0001  0.0324
  14.  C  0.0100 -0.0129  0.0118  0.0004 -0.0005  0.0003  0.0217  0.0000 -0.0456
  15.  H  0.0010  0.0001 -0.0003  0.0010  0.0003 -0.0004 -0.0002  0.0000  0.0031
  16.  H -0.0020  0.0012 -0.0012  0.0018  0.0006 -0.0012  0.0008 -0.0002  0.0024
  17.  H -0.0018  0.0000  0.0000  0.0001  0.0002  0.0003  0.0008 -0.0001  0.0012
  18.  H  0.0013  0.0002  0.0000  0.0003  0.0000  0.0003 -0.0033  0.0001  0.0010
  19.  H -0.0001 -0.0002  0.0003 -0.0002 -0.0001  0.0001  0.0056  0.0001  0.0071
  20.  C  0.0031 -0.0008 -0.0005  0.0224 -0.0149 -0.0148 -0.0036  0.7465  0.0036
  21.  C -0.0033 -0.0013  0.0012 -0.0243  0.0047  0.0137  0.0003 -0.0418  0.0000
  22.  C -0.0007 -0.0012  0.0002 -0.0047 -0.0085  0.0102  0.0000 -0.0238  0.0001
  23.  C -0.0019 -0.0005 -0.0003  0.0000  0.0001  0.0003 -0.0001  0.0060  0.0001
  24.  C -0.0027  0.0005 -0.0004 -0.0084 -0.0001  0.0012  0.0004  0.0085  0.0000
  25.  C  0.0004  0.0003 -0.0005  0.0100  0.0118 -0.0129  0.0000  0.0217  0.0000
  26.  H  0.0018 -0.0012  0.0006 -0.0020 -0.0012  0.0012 -0.0002  0.0008  0.0002
  27.  H  0.0010 -0.0004  0.0003  0.0010 -0.0003  0.0001  0.0000 -0.0002  0.0001
  28.  H  0.0003  0.0003  0.0000  0.0013  0.0000  0.0002  0.0001 -0.0033  0.0000
  29.  H  0.0001  0.0003  0.0002 -0.0018  0.0000  0.0000 -0.0001  0.0008  0.0000
  30.  H -0.0002  0.0001 -0.0001 -0.0001  0.0003 -0.0002  0.0001  0.0056  0.0000

     Atom   10      11      12      13      14      15      16      17      18
     ---- ------  ------  ------  ------  ------  ------  ------  ------  ------
   1.  C -0.0047 -0.0243 -0.0084  0.0000  0.0100  0.0010 -0.0020 -0.0018  0.0013
   2.  H  0.0102  0.0137  0.0012  0.0003 -0.0129  0.0001  0.0012  0.0000  0.0002
   3.  H -0.0085  0.0047 -0.0001  0.0001  0.0118 -0.0003 -0.0012  0.0000  0.0000
   4.  C -0.0007 -0.0033 -0.0027 -0.0019  0.0004  0.0010  0.0018  0.0001  0.0003
   5.  H  0.0002  0.0012 -0.0004 -0.0003 -0.0005  0.0003  0.0006  0.0002  0.0000
   6.  H -0.0012 -0.0013  0.0005 -0.0005  0.0003 -0.0004 -0.0012  0.0003  0.0003
   7.  O -0.0238 -0.0418  0.0085  0.0060  0.0217 -0.0002  0.0008  0.0008 -0.0033
   8.  O  0.0000  0.0003  0.0004 -0.0001  0.0000  0.0000 -0.0002 -0.0001  0.0001
   9.  C  1.2320  1.5504  0.0241  0.0324 -0.0456  0.0031  0.0024  0.0012  0.0010
  10.  C  0.0000 -0.0068  1.6566 -0.0487 -0.0463  0.7565  0.0083  0.0016  0.0073
  11.  C -0.0068  0.0000 -0.0446  1.2461 -0.0388  0.0034  0.7631  0.0069  0.0024
  12.  C  1.6566 -0.0446  0.0000  0.0221  1.2664  0.0028  0.0062  0.7673  0.0011
  13.  C -0.0487  1.2461  0.0221  0.0000  1.6501  0.0069  0.0022  0.0014  0.7683
  14.  C -0.0463 -0.0388  1.2664  1.6501  0.0000  0.0088  0.0084  0.0009  0.0020
  15.  H  0.7565  0.0034  0.0028  0.0069  0.0088  0.0000  0.0009 -0.0019 -0.0057
  16.  H  0.0083  0.7631  0.0062  0.0022  0.0084  0.0009  0.0000 -0.0057 -0.0027
  17.  H  0.0016  0.0069  0.7673  0.0014  0.0009 -0.0019 -0.0057  0.0000 -0.0027
  18.  H  0.0073  0.0024  0.0011  0.7683  0.0020 -0.0057 -0.0027 -0.0027  0.0000
  19.  H  0.0011  0.0010  0.0013  0.0016  0.7669 -0.0009 -0.0011 -0.0034 -0.0032
  20.  C  0.0001  0.0000  0.0000  0.0001  0.0000  0.0001  0.0002  0.0000  0.0000
  21.  C  0.0001  0.0003 -0.0001 -0.0001 -0.0001  0.0000 -0.0001  0.0000  0.0000
  22.  C  0.0001  0.0001  0.0000  0.0000 -0.0002  0.0001  0.0002  0.0000 -0.0001
  23.  C  0.0000 -0.0001  0.0000  0.0000 -0.0001  0.0000  0.0001  0.0000  0.0000
  24.  C  0.0000 -0.0001  0.0000  0.0000  0.0000  0.0000  0.0001  0.0000  0.0000
  25.  C -0.0002 -0.0001  0.0000 -0.0001  0.0001 -0.0001 -0.0001  0.0000  0.0000
  26.  H  0.0002 -0.0001  0.0001  0.0001 -0.0001  0.0001  0.0002  0.0000  0.0000
  27.  H  0.0001  0.0000  0.0000  0.0000 -0.0001  0.0001  0.0001  0.0000  0.0000
  28.  H -0.0001  0.0000  0.0000  0.0000  0.0000  0.0000  0.0000  0.0000  0.0000
  29.  H  0.0000  0.0000  0.0000  0.0000  0.0000  0.0000  0.0000  0.0000  0.0000
  30.  H  0.0000  0.0000  0.0000  0.0000  0.0000  0.0000  0.0000  0.0000  0.0000

     Atom   19      20      21      22      23      24      25      26      27
     ---- ------  ------  ------  ------  ------  ------  ------  ------  ------
   1.  C -0.0001  0.0031 -0.0033 -0.0007 -0.0019 -0.0027  0.0004  0.0018  0.0010
   2.  H -0.0002 -0.0008 -0.0013 -0.0012 -0.0005  0.0005  0.0003 -0.0012 -0.0004
   3.  H  0.0003 -0.0005  0.0012  0.0002 -0.0003 -0.0004 -0.0005  0.0006  0.0003
   4.  C -0.0002  0.0224 -0.0243 -0.0047  0.0000 -0.0084  0.0100 -0.0020  0.0010
   5.  H -0.0001 -0.0149  0.0047 -0.0085  0.0001 -0.0001  0.0118 -0.0012 -0.0003
   6.  H  0.0001 -0.0148  0.0137  0.0102  0.0003  0.0012 -0.0129  0.0012  0.0001
   7.  O  0.0056 -0.0036  0.0003  0.0000 -0.0001  0.0004  0.0000 -0.0002  0.0000
   8.  O  0.0001  0.7465 -0.0418 -0.0238  0.0060  0.0085  0.0217  0.0008 -0.0002
   9.  C  0.0071  0.0036  0.0000  0.0001  0.0001  0.0000  0.0000  0.0002  0.0001
  10.  C  0.0011  0.0001  0.0001  0.0001  0.0000  0.0000 -0.0002  0.0002  0.0001
  11.  C  0.0010  0.0000  0.0003  0.0001 -0.0001 -0.0001 -0.0001 -0.0001  0.0000
  12.  C  0.0013  0.0000 -0.0001  0.0000  0.0000  0.0000  0.0000  0.0001  0.0000
  13.  C  0.0016  0.0001 -0.0001  0.0000  0.0000  0.0000 -0.0001  0.0001  0.0000
  14.  C  0.7669  0.0000 -0.0001 -0.0002 -0.0001  0.0000  0.0001 -0.0001 -0.0001
  15.  H -0.0009  0.0001  0.0000  0.0001  0.0000  0.0000 -0.0001  0.0001  0.0001
  16.  H -0.0011  0.0002 -0.0001  0.0002  0.0001  0.0001 -0.0001  0.0002  0.0001
  17.  H -0.0034  0.0000  0.0000  0.0000  0.0000  0.0000  0.0000  0.0000  0.0000
  18.  H -0.0032  0.0000  0.0000 -0.0001  0.0000  0.0000  0.0000  0.0000  0.0000
  19.  H  0.0000  0.0000  0.0000  0.0000  0.0000  0.0000  0.0000  0.0000  0.0000
  20.  C  0.0000  0.0000  1.5504  1.2320  0.0324  0.0241 -0.0456  0.0024  0.0031
  21.  C  0.0000  1.5504  0.0000 -0.0068  1.2461 -0.0446 -0.0388  0.7631  0.0034
  22.  C  0.0000  1.2320 -0.0068  0.0000 -0.0487  1.6566 -0.0463  0.0083  0.7565
  23.  C  0.0000  0.0324  1.2461 -0.0487  0.0000  0.0221  1.6501  0.0022  0.0069
  24.  C  0.0000  0.0241 -0.0446  1.6566  0.0221  0.0000  1.2664  0.0062  0.0028
  25.  C  0.0000 -0.0456 -0.0388 -0.0463  1.6501  1.2664  0.0000  0.0084  0.0088
  26.  H  0.0000  0.0024  0.7631  0.0083  0.0022  0.0062  0.0084  0.0000  0.0009
  27.  H  0.0000  0.0031  0.0034  0.7565  0.0069  0.0028  0.0088  0.0009  0.0000
  28.  H  0.0000  0.0010  0.0024  0.0073  0.7683  0.0011  0.0020 -0.0027 -0.0057
  29.  H  0.0000  0.0012  0.0069  0.0016  0.0014  0.7673  0.0009 -0.0057 -0.0019
  30.  H  0.0000  0.0071  0.0010  0.0011  0.0016  0.0013  0.7669 -0.0011 -0.0009

     Atom   28      29      30
     ---- ------  ------  ------
   1.  C  0.0003  0.0001 -0.0002
   2.  H  0.0003  0.0003  0.0001
   3.  H  0.0000  0.0002 -0.0001
   4.  C  0.0013 -0.0018 -0.0001
   5.  H  0.0000  0.0000  0.0003
   6.  H  0.0002  0.0000 -0.0002
   7.  O  0.0001 -0.0001  0.0001
   8.  O -0.0033  0.0008  0.0056
   9.  C  0.0000  0.0000  0.0000
  10.  C -0.0001  0.0000  0.0000
  11.  C  0.0000  0.0000  0.0000
  12.  C  0.0000  0.0000  0.0000
  13.  C  0.0000  0.0000  0.0000
  14.  C  0.0000  0.0000  0.0000
  15.  H  0.0000  0.0000  0.0000
  16.  H  0.0000  0.0000  0.0000
  17.  H  0.0000  0.0000  0.0000
  18.  H  0.0000  0.0000  0.0000
  19.  H  0.0000  0.0000  0.0000
  20.  C  0.0010  0.0012  0.0071
  21.  C  0.0024  0.0069  0.0010
  22.  C  0.0073  0.0016  0.0011
  23.  C  0.7683  0.0014  0.0016
  24.  C  0.0011  0.7673  0.0013
  25.  C  0.0020  0.0009  0.7669
  26.  H -0.0027 -0.0057 -0.0011
  27.  H -0.0057 -0.0019 -0.0009
  28.  H  0.0000 -0.0027 -0.0032
  29.  H -0.0027  0.0000 -0.0034
  30.  H -0.0032 -0.0034  0.0000


 Linear NLMO/NPA Bond Orders, Totals by Atom:                                  

     Atom    1
     ---- ------
   1.  C  3.2402
   2.  H  0.7638
   3.  H  0.7301
   4.  C  3.2402
   5.  H  0.7301
   6.  H  0.7638
   7.  O  1.3653
   8.  O  1.3653
   9.  C  3.5498
  10.  C  3.5336
  11.  C  3.4324
  12.  C  3.7021
  13.  C  3.6861
  14.  C  3.6034
  15.  H  0.7756
  16.  H  0.7823
  17.  H  0.7653
  18.  H  0.7665
  19.  H  0.7760
  20.  C  3.5498
  21.  C  3.4324
  22.  C  3.5336
  23.  C  3.6861
  24.  C  3.7021
  25.  C  3.6034
  26.  H  0.7823
  27.  H  0.7756
  28.  H  0.7665
  29.  H  0.7653
  30.  H  0.7760
 Leave Link  607 at Fri May 17 11:35:58 2024, MaxMem=  6291456000 cpu:       672.7
 (Enter /home/madghost/g09/l9999.exe)
 1\1\GINC-NODE-5\SP\RPBE1PBE\Gen\C14H14O2\NATALYA\17-May-2024\0\\#P PBE
 1PBE/GEN pop=nboread\\s\\0,1\C,0,0.187619,0.726872,-1.294463\H,0,-0.13
 0113,1.178259,-2.243415\H,0,1.276174,0.826874,-1.207677\C,0,-0.187619,
 -0.726872,-1.294463\H,0,-1.276174,-0.826874,-1.207677\H,0,0.130113,-1.
 178259,-2.243415\O,0,-0.456357,1.350964,-0.211297\O,0,0.456357,-1.3509
 64,-0.211297\C,0,-0.218648,2.666454,0.00139\C,0,-0.854777,3.228466,1.1
 06683\C,0,0.595742,3.45597,-0.803425\C,0,-0.675992,4.56585,1.40029\C,0
 ,0.765725,4.800384,-0.493457\C,0,0.136528,5.363545,0.602003\H,0,-1.482
 319,2.593337,1.720169\H,0,1.099358,3.04073,-1.66593\H,0,-1.17537,4.991
 627,2.263187\H,0,1.402831,5.4087,-1.125506\H,0,0.275418,6.412013,0.835
 426\C,0,0.218648,-2.666454,0.00139\C,0,-0.595742,-3.45597,-0.803425\C,
 0,0.854777,-3.228466,1.106683\C,0,-0.765725,-4.800384,-0.493457\C,0,0.
 675992,-4.56585,1.40029\C,0,-0.136528,-5.363545,0.602003\H,0,-1.099358
 ,-3.04073,-1.66593\H,0,1.482319,-2.593337,1.720169\H,0,-1.402831,-5.40
 87,-1.125506\H,0,1.17537,-4.991627,2.263187\H,0,-0.275418,-6.412013,0.
 835426\\Version=EM64L-G09RevD.01\State=1-A\HF=-691.7969778\RMSD=5.858e
 -09\Dipole=0.,0.,-0.6742881\Quadrupole=-3.4370441,0.9446479,2.4923963,
 2.488494,0.,0.\PG=C02 [X(C14H14O2)]\\@


 If fifty million people say a stupid thing,
 it is still a stupid thing.
                   -- Anatole France
 Job cpu time:       0 days  1 hours 44 minutes 52.4 seconds.
 File lengths (MBytes):  RWF=    266 Int=      0 D2E=      0 Chk=     19 Scr=      1
 Normal termination of Gaussian 09 at Fri May 17 11:35:59 2024.
