 Entering Gaussian System, Link 0=/home/madghost/g09/g09
 Input=job38.gjf
 Output=job38.log
 Initial command:
 /home/madghost/g09/l1.exe "/scr/natalya/job38/Gau-3912371.inp" -scrdir="/scr/natalya/job38/"
 Entering Link 1 = /home/madghost/g09/l1.exe PID=   3912408.
  
 Copyright (c) 1988,1990,1992,1993,1995,1998,2003,2009,2013,
            Gaussian, Inc.  All Rights Reserved.
  
 This is part of the Gaussian(R) 09 program.  It is based on
 the Gaussian(R) 03 system (copyright 2003, Gaussian, Inc.),
 the Gaussian(R) 98 system (copyright 1998, Gaussian, Inc.),
 the Gaussian(R) 94 system (copyright 1995, Gaussian, Inc.),
 the Gaussian 92(TM) system (copyright 1992, Gaussian, Inc.),
 the Gaussian 90(TM) system (copyright 1990, Gaussian, Inc.),
 the Gaussian 88(TM) system (copyright 1988, Gaussian, Inc.),
 the Gaussian 86(TM) system (copyright 1986, Carnegie Mellon
 University), and the Gaussian 82(TM) system (copyright 1983,
 Carnegie Mellon University). Gaussian is a federally registered
 trademark of Gaussian, Inc.
  
 This software contains proprietary and confidential information,
 including trade secrets, belonging to Gaussian, Inc.
  
 This software is provided under written license and may be
 used, copied, transmitted, or stored only in accord with that
 written license.
  
 The following legend is applicable only to US Government
 contracts under FAR:
  
                    RESTRICTED RIGHTS LEGEND
  
 Use, reproduction and disclosure by the US Government is
 subject to restrictions as set forth in subparagraphs (a)
 and (c) of the Commercial Computer Software - Restricted
 Rights clause in FAR 52.227-19.
  
 Gaussian, Inc.
 340 Quinnipiac St., Bldg. 40, Wallingford CT 06492
  
  
 ---------------------------------------------------------------
 Warning -- This program may not be used in any manner that
 competes with the business of Gaussian, Inc. or will provide
 assistance to any competitor of Gaussian, Inc.  The licensee
 of this program is prohibited from giving any competitor of
 Gaussian, Inc. access to this program.  By using this program,
 the user acknowledges that Gaussian, Inc. is engaged in the
 business of creating and licensing software in the field of
 computational chemistry and represents and warrants to the
 licensee that it is not a competitor of Gaussian, Inc. and that
 it will not use this program in any manner prohibited above.
 ---------------------------------------------------------------
  

 Cite this work as:
 Gaussian 09, Revision D.01,
 M. J. Frisch, G. W. Trucks, H. B. Schlegel, G. E. Scuseria, 
 M. A. Robb, J. R. Cheeseman, G. Scalmani, V. Barone, B. Mennucci, 
 G. A. Petersson, H. Nakatsuji, M. Caricato, X. Li, H. P. Hratchian, 
 A. F. Izmaylov, J. Bloino, G. Zheng, J. L. Sonnenberg, M. Hada, 
 M. Ehara, K. Toyota, R. Fukuda, J. Hasegawa, M. Ishida, T. Nakajima, 
 Y. Honda, O. Kitao, H. Nakai, T. Vreven, J. A. Montgomery, Jr., 
 J. E. Peralta, F. Ogliaro, M. Bearpark, J. J. Heyd, E. Brothers, 
 K. N. Kudin, V. N. Staroverov, T. Keith, R. Kobayashi, J. Normand, 
 K. Raghavachari, A. Rendell, J. C. Burant, S. S. Iyengar, J. Tomasi, 
 M. Cossi, N. Rega, J. M. Millam, M. Klene, J. E. Knox, J. B. Cross, 
 V. Bakken, C. Adamo, J. Jaramillo, R. Gomperts, R. E. Stratmann, 
 O. Yazyev, A. J. Austin, R. Cammi, C. Pomelli, J. W. Ochterski, 
 R. L. Martin, K. Morokuma, V. G. Zakrzewski, G. A. Voth, 
 P. Salvador, J. J. Dannenberg, S. Dapprich, A. D. Daniels, 
 O. Farkas, J. B. Foresman, J. V. Ortiz, J. Cioslowski, 
 and D. J. Fox, Gaussian, Inc., Wallingford CT, 2013.
 
 ******************************************
 Gaussian 09:  EM64L-G09RevD.01 24-Apr-2013
                17-May-2024 
 ******************************************
 %chk=job38
 %nproc=24
 Will use up to   24 processors via shared memory.
 %mem=48000mb
 --------------------------
 #P PBE1PBE/GEN pop=nboread
 --------------------------
 1/38=1/1;
 2/12=2,17=6,18=5,40=1/2;
 3/5=7,11=2,16=1,25=1,30=1,74=-13/1,2,3;
 4//1;
 5/5=2,38=5/2;
 6/7=2,8=2,9=2,10=2,28=1,40=2/1,7;
 99/5=1,9=1/99;
 Leave Link    1 at Fri May 17 10:19:43 2024, MaxMem=  6291456000 cpu:         0.6
 (Enter /home/madghost/g09/l101.exe)
 ---
 c2h
 ---
 Symbolic Z-matrix:
 Charge =  0 Multiplicity = 1
 6                     0.75987   2.0907   -0.63138 
 1                     1.05602   3.02642  -1.11523 
 1                     0.36098   1.43117  -1.40577 
 6                    -0.27969   2.42475   0.41789 
 1                     0.20446   2.98097   1.22217 
 1                    -1.05416   3.06784  -0.01705 
 8                     1.93557   1.56313  -0.06195 
 8                    -0.8476    1.29723   1.04464 
 6                     2.14017   0.22123  -0.00546 
 6                     1.23356  -0.7475   -0.41882 
 6                     3.37525  -0.16593   0.51019 
 6                     1.57356  -2.09008  -0.31522 
 6                     3.69788  -1.50592   0.60942 
 6                     2.79919  -2.48111   0.19514 
 1                     0.25617  -0.4856   -0.79861 
 1                     4.0671    0.60517   0.82717 
 1                     0.85378  -2.83521  -0.63485 
 1                     4.6626   -1.79114   1.01361 
 1                     3.05211  -3.53134   0.27407 
 6                    -1.78201   0.57168   0.38521 
 6                    -2.19028  -0.59909   1.02191 
 6                    -2.33255   0.913    -0.84611 
 6                    -3.14063  -1.41162   0.43613 
 6                    -3.28838   0.08426  -1.42292 
 6                    -3.69811  -1.07685  -0.79298 
 1                    -1.73854  -0.85095   1.97353 
 1                    -2.03108   1.81195  -1.36662 
 1                    -3.44799  -2.31939   0.94275 
 1                    -3.71114   0.35958  -2.38251 
 1                    -4.44088  -1.71745  -1.25216 
 
 NAtoms=     30 NQM=       30 NQMF=       0 NMMI=      0 NMMIF=      0
                NMic=       0 NMicF=      0.
                    Isotopes and Nuclear Properties:
 (Nuclear quadrupole moments (NQMom) in fm**2, nuclear magnetic moments (NMagM)
  in nuclear magnetons)

  Atom         1           2           3           4           5           6           7           8           9          10
 IAtWgt=          12           1           1          12           1           1          16          16          12          12
 AtmWgt=  12.0000000   1.0078250   1.0078250  12.0000000   1.0078250   1.0078250  15.9949146  15.9949146  12.0000000  12.0000000
 NucSpn=           0           1           1           0           1           1           0           0           0           0
 AtZEff=   0.0000000   0.0000000   0.0000000   0.0000000   0.0000000   0.0000000   0.0000000   0.0000000   0.0000000   0.0000000
 NQMom=    0.0000000   0.0000000   0.0000000   0.0000000   0.0000000   0.0000000   0.0000000   0.0000000   0.0000000   0.0000000
 NMagM=    0.0000000   2.7928460   2.7928460   0.0000000   2.7928460   2.7928460   0.0000000   0.0000000   0.0000000   0.0000000
 AtZNuc=   6.0000000   1.0000000   1.0000000   6.0000000   1.0000000   1.0000000   8.0000000   8.0000000   6.0000000   6.0000000

  Atom        11          12          13          14          15          16          17          18          19          20
 IAtWgt=          12          12          12          12           1           1           1           1           1          12
 AtmWgt=  12.0000000  12.0000000  12.0000000  12.0000000   1.0078250   1.0078250   1.0078250   1.0078250   1.0078250  12.0000000
 NucSpn=           0           0           0           0           1           1           1           1           1           0
 AtZEff=   0.0000000   0.0000000   0.0000000   0.0000000   0.0000000   0.0000000   0.0000000   0.0000000   0.0000000   0.0000000
 NQMom=    0.0000000   0.0000000   0.0000000   0.0000000   0.0000000   0.0000000   0.0000000   0.0000000   0.0000000   0.0000000
 NMagM=    0.0000000   0.0000000   0.0000000   0.0000000   2.7928460   2.7928460   2.7928460   2.7928460   2.7928460   0.0000000
 AtZNuc=   6.0000000   6.0000000   6.0000000   6.0000000   1.0000000   1.0000000   1.0000000   1.0000000   1.0000000   6.0000000

  Atom        21          22          23          24          25          26          27          28          29          30
 IAtWgt=          12          12          12          12          12           1           1           1           1           1
 AtmWgt=  12.0000000  12.0000000  12.0000000  12.0000000  12.0000000   1.0078250   1.0078250   1.0078250   1.0078250   1.0078250
 NucSpn=           0           0           0           0           0           1           1           1           1           1
 AtZEff=   0.0000000   0.0000000   0.0000000   0.0000000   0.0000000   0.0000000   0.0000000   0.0000000   0.0000000   0.0000000
 NQMom=    0.0000000   0.0000000   0.0000000   0.0000000   0.0000000   0.0000000   0.0000000   0.0000000   0.0000000   0.0000000
 NMagM=    0.0000000   0.0000000   0.0000000   0.0000000   0.0000000   2.7928460   2.7928460   2.7928460   2.7928460   2.7928460
 AtZNuc=   6.0000000   6.0000000   6.0000000   6.0000000   6.0000000   1.0000000   1.0000000   1.0000000   1.0000000   1.0000000
 Leave Link  101 at Fri May 17 10:19:43 2024, MaxMem=  6291456000 cpu:         3.3
 (Enter /home/madghost/g09/l202.exe)
                          Input orientation:                          
 ---------------------------------------------------------------------
 Center     Atomic      Atomic             Coordinates (Angstroms)
 Number     Number       Type             X           Y           Z
 ---------------------------------------------------------------------
      1          6           0        0.759874    2.090698   -0.631382
      2          1           0        1.056021    3.026419   -1.115232
      3          1           0        0.360978    1.431169   -1.405770
      4          6           0       -0.279693    2.424745    0.417885
      5          1           0        0.204457    2.980969    1.222173
      6          1           0       -1.054159    3.067835   -0.017052
      7          8           0        1.935565    1.563132   -0.061947
      8          8           0       -0.847604    1.297228    1.044642
      9          6           0        2.140172    0.221227   -0.005462
     10          6           0        1.233560   -0.747498   -0.418822
     11          6           0        3.375246   -0.165932    0.510189
     12          6           0        1.573558   -2.090077   -0.315222
     13          6           0        3.697875   -1.505918    0.609415
     14          6           0        2.799185   -2.481112    0.195136
     15          1           0        0.256173   -0.485601   -0.798606
     16          1           0        4.067099    0.605165    0.827171
     17          1           0        0.853781   -2.835214   -0.634845
     18          1           0        4.662603   -1.791140    1.013615
     19          1           0        3.052114   -3.531337    0.274067
     20          6           0       -1.782010    0.571678    0.385209
     21          6           0       -2.190280   -0.599086    1.021914
     22          6           0       -2.332554    0.913004   -0.846108
     23          6           0       -3.140633   -1.411615    0.436134
     24          6           0       -3.288379    0.084256   -1.422921
     25          6           0       -3.698109   -1.076853   -0.792977
     26          1           0       -1.738544   -0.850949    1.973526
     27          1           0       -2.031080    1.811950   -1.366621
     28          1           0       -3.447985   -2.319385    0.942750
     29          1           0       -3.711138    0.359578   -2.382512
     30          1           0       -4.440875   -1.717447   -1.252156
 ---------------------------------------------------------------------
                    Distance matrix (angstroms):
                    1          2          3          4          5
     1  C    0.000000
     2  H    1.094252   0.000000
     3  H    1.092599   1.764177   0.000000
     4  C    1.514347   2.120517   2.173332   0.000000
     5  H    2.129962   2.488110   3.054908   1.091176   0.000000
     6  H    2.150096   2.379196   2.570958   1.096600   1.768428
     7  O    1.408840   2.006045   2.074271   2.424868   2.579915
     8  O    2.454106   3.358414   2.735531   1.409483   1.993322
     9  C    2.406641   3.205632   2.567168   3.300070   3.587514
    10  C    2.885293   3.841739   2.545988   3.612913   4.201593
    11  C    3.638095   4.267541   3.912473   4.480927   4.523694
    12  C    4.270939   5.204459   3.880569   4.935140   5.472982
    13  C    4.806982   5.522307   4.880813   5.595341   5.719405
    14  C    5.073792   5.923562   4.879928   5.796252   6.133657
    15  H    2.630398   3.615839   2.013365   3.199549   4.012895
    16  H    3.907931   4.324580   4.404956   4.730009   4.551975
    17  H    4.926808   5.884761   4.363394   5.482716   6.139880
    18  H    5.745083   6.383439   5.894122   6.523409   6.533880
    19  H    6.138524   6.994191   5.889867   6.826165   7.170647
    20  C    3.130823   4.041225   2.922110   2.385766   3.232838
    21  C    4.321080   5.315087   4.065034   3.627499   4.311805
    22  C    3.316049   4.002673   2.799434   2.845572   3.871781
    23  C    5.349742   6.301967   4.871890   4.785705   5.576942
    24  C    4.587014   5.255931   3.890023   4.233042   5.252368
    25  C    5.471115   6.288278   4.810600   5.041125   5.979697
    26  H    4.656278   5.690694   4.586469   3.908764   4.361580
    27  H    2.899604   3.326909   2.422492   2.574361   3.614704
    28  H    6.295459   7.286905   5.838699   5.728903   6.442993
    29  H    5.104232   5.607481   4.322553   4.886917   5.932734
    30  H    6.475733   7.262154   5.744142   6.104279   7.055248
                    6          7          8          9         10
     6  H    0.000000
     7  O    3.347327   0.000000
     8  O    2.074827   3.006871   0.000000
     9  C    4.278675   1.358589   3.344742   0.000000
    10  C    4.466749   2.441144   3.264027   1.389691   0.000000
    11  C    5.509525   2.321569   4.500993   1.393268   2.405847
    12  C    5.796366   3.679828   4.380079   2.399819   1.388830
    13  C    6.625217   3.602156   5.358025   2.405731   2.775846
    14  C    6.759001   4.143409   5.319453   2.788758   2.415273
    15  H    3.867131   2.749606   2.791839   2.162900   1.080792
    16  H    5.744975   2.500334   4.967952   2.133948   3.378038
    17  H    6.234412   4.565514   4.774145   3.375316   2.132945
    18  H    7.573195   4.454740   6.316752   3.383903   3.859974
    19  H    7.777872   5.226203   6.254329   3.871887   3.396615
    20  C    2.631042   3.873408   1.354396   3.957139   3.388267
    21  C    3.977000   4.782524   2.323640   4.525619   3.717583
    22  C    2.639114   4.387985   2.434675   4.603316   3.956894
    23  C    4.962280   5.904658   3.600846   5.545095   4.506170
    24  C    3.983711   5.597224   3.676622   5.612229   4.706162
    25  C    4.977044   6.264360   4.139865   6.032472   4.956796
    26  H    4.448331   4.844586   2.504249   4.484461   3.816731
    27  H    2.086374   4.183104   2.734912   4.667172   4.255229
    28  H    5.972752   6.713119   4.455587   6.211386   5.122653
    29  H    4.470972   6.222445   4.563376   6.317225   5.434311
    30  H    5.991181   7.268960   5.222561   6.973011   5.816740
                   11         12         13         14         15
    11  C    0.000000
    12  C    2.762194   0.000000
    13  C    1.381846   2.389334   0.000000
    14  C    2.406484   1.384029   1.389343   0.000000
    15  H    3.397609   2.131550   3.856019   3.381789   0.000000
    16  H    1.083388   3.845405   2.154162   3.395906   4.284399
    17  H    3.846291   1.084190   3.376993   2.144494   2.429945
    18  H    2.133548   3.375999   1.084172   2.149022   4.940162
    19  H    3.389118   2.147235   2.152159   1.083132   4.271349
    20  C    5.211236   4.339975   5.864794   5.508448   2.583302
    21  C    5.605762   4.263504   5.971840   5.396327   3.051607
    22  C    5.965117   4.955608   6.658514   6.240109   2.942764
    23  C    6.634296   4.821664   6.841353   6.040144   3.731002
    24  C    6.942867   5.439959   7.447603   6.801298   3.643948
    25  C    7.249853   5.389373   7.539985   6.720353   3.998244
    26  H    5.362970   4.212342   5.643087   5.139172   3.434689
    27  H    6.054981   5.415226   6.908972   6.648378   3.291338
    28  H    7.168051   5.181792   7.199733   6.293824   4.485072
    29  H    7.672074   6.180818   8.205192   7.556328   4.354612
    30  H    8.161177   6.098369   8.351613   7.422689   4.877029
                   16         17         18         19         20
    16  H    0.000000
    17  H    4.929413   0.000000
    18  H    2.476220   4.279560   0.000000
    19  H    4.294970   2.478584   2.483725   0.000000
    20  C    5.865878   4.426603   6.892811   6.341596   0.000000
    21  C    6.375181   4.124491   6.955794   6.053104   1.393831
    22  C    6.621947   4.924074   7.726784   7.071182   1.391310
    23  C    7.494779   4.373668   7.833774   6.547488   2.404558
    24  C    7.709560   5.128534   8.524783   7.493606   2.403344
    25  C    8.108793   4.882268   8.583443   7.261445   2.788765
    26  H    6.094250   4.178643   6.540648   5.746568   2.132723
    27  H    6.592180   5.518519   7.965750   7.555226   2.160838
    28  H    8.064914   4.610865   8.128081   6.645845   3.382982
    29  H    8.418037   5.839480   9.288638   8.242464   3.380355
    30  H    9.061112   5.446454   9.381496   7.859035   3.871772
                   21         22         23         24         25
    21  C    0.000000
    22  C    2.407522   0.000000
    23  C    1.380765   2.775066   0.000000
    24  C    2.765863   1.390373   2.390720   0.000000
    25  C    2.407413   2.413937   1.390525   1.383070   0.000000
    26  H    1.083082   3.378567   2.154942   3.848694   3.397715
    27  H    3.397578   1.081630   3.856476   2.137498   3.384263
    28  H    2.132491   3.859085   1.084053   3.376294   2.149231
    29  H    3.849956   2.137127   3.377479   1.084132   2.142458
    30  H    3.389292   3.395462   2.152786   2.145586   1.083008
                   26         27         28         29         30
    26  H    0.000000
    27  H    4.281727   0.000000
    28  H    2.478102   4.940521   0.000000
    29  H    4.932704   2.442133   4.278254   0.000000
    30  H    4.296328   4.275144   2.483097   2.474723   0.000000
 Stoichiometry    C14H14O2
 Framework group  C1[X(C14H14O2)]
 Deg. of freedom    84
 Full point group                 C1      NOp   1
 Largest Abelian subgroup         C1      NOp   1
 Largest concise Abelian subgroup C1      NOp   1
                         Standard orientation:                         
 ---------------------------------------------------------------------
 Center     Atomic      Atomic             Coordinates (Angstroms)
 Number     Number       Type             X           Y           Z
 ---------------------------------------------------------------------
      1          6           0        0.450822    2.168875   -0.663184
      2          1           0        0.590156    3.135740   -1.156281
      3          1           0        0.059374    1.472299   -1.408385
      4          6           0       -0.516698    2.373025    0.483758
      5          1           0       -0.026218    2.976733    1.249023
      6          1           0       -1.397685    2.924333    0.133823
      7          8           0        1.727925    1.778154   -0.214655
      8          8           0       -0.889176    1.183138    1.141079
      9          6           0        2.090279    0.468855   -0.200545
     10          6           0        1.266474   -0.596182   -0.544469
     11          6           0        3.404842    0.224835    0.191339
     12          6           0        1.767230   -1.890689   -0.496049
     13          6           0        3.887711   -1.069091    0.237063
     14          6           0        3.072400   -2.139624   -0.108624
     15          1           0        0.233978   -0.447434   -0.827201
     16          1           0        4.029977    1.069202    0.455875
     17          1           0        1.111241   -2.712506   -0.760172
     18          1           0        4.912682   -1.242632    0.544877
     19          1           0        3.451027   -3.153749   -0.071637
     20          6           0       -1.791707    0.357937    0.558954
     21          6           0       -2.000400   -0.856384    1.210597
     22          6           0       -2.491590    0.640626   -0.609803
     23          6           0       -2.901726   -1.770292    0.701779
     24          6           0       -3.395612   -0.290084   -1.109464
     25          6           0       -3.607500   -1.494943   -0.464250
     26          1           0       -1.434916   -1.059957    2.111625
     27          1           0       -2.346206    1.571819   -1.140528
     28          1           0       -3.053216   -2.710845    1.219064
     29          1           0       -3.935899   -0.059789   -2.020725
     30          1           0       -4.311436   -2.214725   -0.863367
 ---------------------------------------------------------------------
 Rotational constants (GHZ):      0.8890521      0.3664795      0.2911036
 Leave Link  202 at Fri May 17 10:19:43 2024, MaxMem=  6291456000 cpu:         0.3
 (Enter /home/madghost/g09/l301.exe)
 General basis read from cards:  (5D, 7F)
 Centers:       2      3      5      6     15     16     17     18     19     26
 Centers:      27     28     29     30
 S 3 1.00
     Exponent=  3.4061341000D+01 Coefficients=  6.0251978000D-03
     Exponent=  5.1235746000D+00 Coefficients=  4.5021094000D-02
     Exponent=  1.1646626000D+00 Coefficients=  2.0189726000D-01
 S 1 1.00
     Exponent=  3.2723041000D-01 Coefficients=  1.0000000000D+00
 S 1 1.00
     Exponent=  1.0307241000D-01 Coefficients=  1.0000000000D+00
 P 1 1.00
     Exponent=  1.4070000000D+00 Coefficients=  1.0000000000D+00
 P 1 1.00
     Exponent=  3.8800000000D-01 Coefficients=  1.0000000000D+00
 D 1 1.00
     Exponent=  1.0570000000D+00 Coefficients=  1.0000000000D+00
 ****
 Centers:       1      4      9     10     11     12     13     14     20     21
 Centers:      22     23     24     25
 S 6 1.00
     Exponent=  1.3575349682D+04 Coefficients=  2.2245814352D-04
     Exponent=  2.0352333680D+03 Coefficients=  1.7232738252D-03
     Exponent=  4.6322562359D+02 Coefficients=  8.9255715314D-03
     Exponent=  1.3120019598D+02 Coefficients=  3.5727984502D-02
     Exponent=  4.2853015891D+01 Coefficients=  1.1076259931D-01
     Exponent=  1.5584185766D+01 Coefficients=  2.4295627626D-01
 S 2 1.00
     Exponent=  6.2067138508D+00 Coefficients=  4.1440263448D-01
     Exponent=  2.5764896527D+00 Coefficients=  2.3744968655D-01
 S 1 1.00
     Exponent=  5.7696339419D-01 Coefficients=  1.0000000000D+00
 S 1 1.00
     Exponent=  2.2972831358D-01 Coefficients=  1.0000000000D+00
 S 1 1.00
     Exponent=  9.5164440028D-02 Coefficients=  1.0000000000D+00
 P 4 1.00
     Exponent=  3.4697232244D+01 Coefficients=  5.3333657805D-03
     Exponent=  7.9582622826D+00 Coefficients=  3.5864109092D-02
     Exponent=  2.3780826883D+00 Coefficients=  1.4215873329D-01
     Exponent=  8.1433208183D-01 Coefficients=  3.4270471845D-01
 P 1 1.00
     Exponent=  2.8887547253D-01 Coefficients=  4.6445822433D-01
 P 1 1.00
     Exponent=  1.0056823671D-01 Coefficients=  2.4955789874D-01
 D 1 1.00
     Exponent=  1.0970000000D+00 Coefficients=  1.0000000000D+00
 D 1 1.00
     Exponent=  3.1800000000D-01 Coefficients=  1.0000000000D+00
 F 1 1.00
     Exponent=  7.6100000000D-01 Coefficients=  1.0000000000D+00
 ****
 Centers:       7      8
 S 6 1.00
     Exponent=  2.7032382631D+04 Coefficients=  2.1726302465D-04
     Exponent=  4.0523871392D+03 Coefficients=  1.6838662199D-03
     Exponent=  9.2232722710D+02 Coefficients=  8.7395616265D-03
     Exponent=  2.6124070989D+02 Coefficients=  3.5239968808D-02
     Exponent=  8.5354641351D+01 Coefficients=  1.1153519115D-01
     Exponent=  3.1035035245D+01 Coefficients=  2.5588953961D-01
 S 2 1.00
     Exponent=  1.2260860728D+01 Coefficients=  3.9768730901D-01
     Exponent=  4.9987076005D+00 Coefficients=  2.4627849430D-01
 S 1 1.00
     Exponent=  1.1703108158D+00 Coefficients=  1.0000000000D+00
 S 1 1.00
     Exponent=  4.6474740994D-01 Coefficients=  1.0000000000D+00
 S 1 1.00
     Exponent=  1.8504536357D-01 Coefficients=  1.0000000000D+00
 P 4 1.00
     Exponent=  6.3274954801D+01 Coefficients=  6.0685103418D-03
     Exponent=  1.4627049379D+01 Coefficients=  4.1912575824D-02
     Exponent=  4.4501223456D+00 Coefficients=  1.6153841088D-01
     Exponent=  1.5275799647D+00 Coefficients=  3.5706951311D-01
 P 1 1.00
     Exponent=  5.2935117943D-01 Coefficients=  4.4794207502D-01
 P 1 1.00
     Exponent=  1.7478421270D-01 Coefficients=  2.4446069663D-01
 D 1 1.00
     Exponent=  2.3140000000D+00 Coefficients=  1.0000000000D+00
 D 1 1.00
     Exponent=  6.4500000000D-01 Coefficients=  1.0000000000D+00
 F 1 1.00
     Exponent=  1.4280000000D+00 Coefficients=  1.0000000000D+00
 ****
 Ernie: Thresh=  0.10000D-02 Tol=  0.10000D-05 Strict=F.
 There are   786 symmetry adapted cartesian basis functions of A   symmetry.
 There are   692 symmetry adapted basis functions of A   symmetry.
   692 basis functions,  1054 primitive gaussians,   786 cartesian basis functions
    57 alpha electrons       57 beta electrons
       nuclear repulsion energy      1048.2778164887 Hartrees.
 IExCor= 1009 DFT=T Ex+Corr=PBE1PBE ExCW=0 ScaHFX=  0.250000
 ScaDFX=  0.750000  0.750000  1.000000  1.000000 ScalE2=  1.000000  1.000000
 IRadAn=      0 IRanWt=     -1 IRanGd=            0 ICorTp=0 IEmpDi=  4
 NAtoms=   30 NActive=   30 NUniq=   30 SFac= 1.00D+00 NAtFMM=   60 NAOKFM=F Big=F
 Integral buffers will be    131072 words long.
 Raffenetti 2 integral format.
 Two-electron integral symmetry is turned on.
 Leave Link  301 at Fri May 17 10:19:44 2024, MaxMem=  6291456000 cpu:         3.4
 (Enter /home/madghost/g09/l302.exe)
 NPDir=0 NMtPBC=     1 NCelOv=     1 NCel=       1 NClECP=     1 NCelD=      1
         NCelK=      1 NCelE2=     1 NClLst=     1 CellRange=     0.0.
 One-electron integrals computed using PRISM.
 NBasis=   692 RedAO= T EigKep=  8.13D-06  NBF=   692
 NBsUse=   692 1.00D-06 EigRej= -1.00D+00 NBFU=   692
 Precomputing XC quadrature grid using
 IXCGrd= 4 IRadAn=           0 IRanWt=          -1 IRanGd=           0 AccXCQ= 0.00D+00.
 Generated NRdTot=       0 NPtTot=           0 NUsed=           0 NTot=          32
 NSgBfM=   781   781   782   782   782 MxSgAt=    30 MxSgA2=    30.
 Leave Link  302 at Fri May 17 10:19:46 2024, MaxMem=  6291456000 cpu:        38.1
 (Enter /home/madghost/g09/l303.exe)
 DipDrv:  MaxL=1.
 Leave Link  303 at Fri May 17 10:19:46 2024, MaxMem=  6291456000 cpu:         2.3
 (Enter /home/madghost/g09/l401.exe)
 ExpMin= 9.52D-02 ExpMax= 2.70D+04 ExpMxC= 9.22D+02 IAcc=2 IRadAn=         4 AccDes= 0.00D+00
 Harris functional with IExCor= 1009 and IRadAn=       4 diagonalized for initial guess.
 HarFok:  IExCor= 1009 AccDes= 0.00D+00 IRadAn=         4 IDoV= 1 UseB2=F ITyADJ=14
 ICtDFT=  3500011 ScaDFX=  1.000000  1.000000  1.000000  1.000000
 FoFCou: FMM=F IPFlag=           0 FMFlag=      100000 FMFlg1=           0
         NFxFlg=           0 DoJE=T BraDBF=F KetDBF=T FulRan=T
         wScrn=  0.000000 ICntrl=     500 IOpCl=  0 I1Cent=   200000004 NGrid=           0
         NMat0=    1 NMatS0=      1 NMatT0=    0 NMatD0=    1 NMtDS0=    0 NMtDT0=    0
 Petite list used in FoFCou.
 Harris En= -692.028984609243    
 JPrj=0 DoOrth=F DoCkMO=F.
 Leave Link  401 at Fri May 17 10:19:50 2024, MaxMem=  6291456000 cpu:        77.1
 (Enter /home/madghost/g09/l502.exe)
 Closed shell SCF:
 Using DIIS extrapolation, IDIIS=  1040.
 Integral symmetry usage will be decided dynamically.
 IVT=     1896530 IEndB=     1896530 NGot=  6291456000 MDV=  6290194693
 LenX=  6290194693 LenY=  6289576111
 Requested convergence on RMS density matrix=1.00D-08 within 128 cycles.
 Requested convergence on MAX density matrix=1.00D-06.
 Requested convergence on             energy=1.00D-06.
 No special actions if energy rises.
 Fock matrices will be formed incrementally for  20 cycles.
 Integral accuracy reduced to 1.0D-05 until final iterations.

 Cycle   1  Pass 0  IDiag  1:
 FoFJK:  IHMeth= 1 ICntrl=       0 DoSepK=F KAlg= 0 I1Cent=   0 FoldK=F
 IRaf= 820000000 NMat=   1 IRICut=       1 DoRegI=T DoRafI=F ISym2E= 0.
 FoFCou: FMM=F IPFlag=           0 FMFlag=      100000 FMFlg1=           0
         NFxFlg=           0 DoJE=F BraDBF=F KetDBF=F FulRan=T
         wScrn=  0.000000 ICntrl=       0 IOpCl=  0 I1Cent=           0 NGrid=           0
         NMat0=    1 NMatS0=      1 NMatT0=    0 NMatD0=    1 NMtDS0=    0 NMtDT0=    0
 Symmetry not used in FoFCou.
 E= -691.421140606324    
 DIIS: error= 1.78D-02 at cycle   1 NSaved=   1.
 NSaved= 1 IEnMin= 1 EnMin= -691.421140606324     IErMin= 1 ErrMin= 1.78D-02
 ErrMax= 1.78D-02  0.00D+00 EMaxC= 1.00D-01 BMatC= 3.93D-01 BMatP= 3.93D-01
 IDIUse=3 WtCom= 8.22D-01 WtEn= 1.78D-01
 Coeff-Com:  0.100D+01
 Coeff-En:   0.100D+01
 Coeff:      0.100D+01
 Gap=     0.254 Goal=   None    Shift=    0.000
 GapD=    0.254 DampG=1.000 DampE=0.500 DampFc=0.5000 IDamp=-1.
 Damping current iteration by 5.00D-01
 RMSDP=2.90D-03 MaxDP=2.19D-01              OVMax= 2.02D-01

 Cycle   2  Pass 0  IDiag  1:
 RMSU=  1.45D-03    CP:  9.98D-01
 E= -691.590381038312     Delta-E=       -0.169240431991 Rises=F Damp=T
 DIIS: error= 4.07D-03 at cycle   2 NSaved=   2.
 NSaved= 2 IEnMin= 2 EnMin= -691.590381038312     IErMin= 2 ErrMin= 4.07D-03
 ErrMax= 4.07D-03  0.00D+00 EMaxC= 1.00D-01 BMatC= 2.83D-02 BMatP= 3.93D-01
 IDIUse=3 WtCom= 9.59D-01 WtEn= 4.07D-02
 Coeff-Com: -0.115D-01 0.101D+01
 Coeff-En:   0.440D-01 0.956D+00
 Coeff:     -0.927D-02 0.101D+01
 Gap=     0.287 Goal=   None    Shift=    0.000
 RMSDP=8.02D-04 MaxDP=4.09D-02 DE=-1.69D-01 OVMax= 1.43D-01

 Cycle   3  Pass 0  IDiag  1:
 RMSU=  7.65D-04    CP:  1.00D+00  1.17D+00
 E= -691.771657773059     Delta-E=       -0.181276734746 Rises=F Damp=F
 DIIS: error= 4.30D-03 at cycle   3 NSaved=   3.
 NSaved= 3 IEnMin= 3 EnMin= -691.771657773059     IErMin= 2 ErrMin= 4.07D-03
 ErrMax= 4.30D-03  0.00D+00 EMaxC= 1.00D-01 BMatC= 1.90D-02 BMatP= 2.83D-02
 IDIUse=3 WtCom= 9.57D-01 WtEn= 4.30D-02
 Coeff-Com: -0.704D-01 0.470D+00 0.600D+00
 Coeff-En:   0.000D+00 0.000D+00 0.100D+01
 Coeff:     -0.674D-01 0.450D+00 0.618D+00
 Gap=     0.224 Goal=   None    Shift=    0.000
 RMSDP=4.77D-04 MaxDP=4.86D-02 DE=-1.81D-01 OVMax= 6.73D-02

 Cycle   4  Pass 0  IDiag  1:
 RMSU=  3.54D-04    CP:  9.91D-01  9.85D-01  7.70D-01
 E= -691.784063961075     Delta-E=       -0.012406188016 Rises=F Damp=F
 DIIS: error= 2.99D-03 at cycle   4 NSaved=   4.
 NSaved= 4 IEnMin= 4 EnMin= -691.784063961075     IErMin= 4 ErrMin= 2.99D-03
 ErrMax= 2.99D-03  0.00D+00 EMaxC= 1.00D-01 BMatC= 6.98D-03 BMatP= 1.90D-02
 IDIUse=3 WtCom= 9.70D-01 WtEn= 2.99D-02
 Coeff-Com: -0.442D-01 0.159D+00 0.405D+00 0.481D+00
 Coeff-En:   0.000D+00 0.000D+00 0.291D+00 0.709D+00
 Coeff:     -0.429D-01 0.154D+00 0.401D+00 0.487D+00
 Gap=     0.216 Goal=   None    Shift=    0.000
 RMSDP=2.38D-04 MaxDP=2.40D-02 DE=-1.24D-02 OVMax= 2.76D-02

 Cycle   5  Pass 0  IDiag  1:
 RMSU=  8.74D-05    CP:  9.93D-01  1.09D+00  8.61D-01  6.07D-01
 E= -691.791173998394     Delta-E=       -0.007110037319 Rises=F Damp=F
 DIIS: error= 4.67D-04 at cycle   5 NSaved=   5.
 NSaved= 5 IEnMin= 5 EnMin= -691.791173998394     IErMin= 5 ErrMin= 4.67D-04
 ErrMax= 4.67D-04  0.00D+00 EMaxC= 1.00D-01 BMatC= 1.88D-04 BMatP= 6.98D-03
 IDIUse=3 WtCom= 9.95D-01 WtEn= 4.67D-03
 Coeff-Com: -0.127D-01 0.293D-01 0.116D+00 0.211D+00 0.656D+00
 Coeff-En:   0.000D+00 0.000D+00 0.000D+00 0.000D+00 0.100D+01
 Coeff:     -0.127D-01 0.292D-01 0.115D+00 0.210D+00 0.658D+00
 Gap=     0.215 Goal=   None    Shift=    0.000
 RMSDP=3.42D-05 MaxDP=1.78D-03 DE=-7.11D-03 OVMax= 3.87D-03

 Cycle   6  Pass 0  IDiag  1:
 RMSU=  2.72D-05    CP:  9.93D-01  1.08D+00  8.57D-01  6.26D-01  9.23D-01
 E= -691.791349306396     Delta-E=       -0.000175308002 Rises=F Damp=F
 DIIS: error= 9.61D-05 at cycle   6 NSaved=   6.
 NSaved= 6 IEnMin= 6 EnMin= -691.791349306396     IErMin= 6 ErrMin= 9.61D-05
 ErrMax= 9.61D-05  0.00D+00 EMaxC= 1.00D-01 BMatC= 1.68D-05 BMatP= 1.88D-04
 IDIUse=1 WtCom= 1.00D+00 WtEn= 0.00D+00
 Coeff-Com: -0.502D-02 0.921D-02 0.457D-01 0.928D-01 0.351D+00 0.506D+00
 Coeff:     -0.502D-02 0.921D-02 0.457D-01 0.928D-01 0.351D+00 0.506D+00
 Gap=     0.216 Goal=   None    Shift=    0.000
 RMSDP=2.00D-05 MaxDP=1.09D-03 DE=-1.75D-04 OVMax= 9.93D-04

 Cycle   7  Pass 0  IDiag  1:
 RMSU=  1.92D-05    CP:  9.93D-01  1.08D+00  8.55D-01  6.34D-01  9.19D-01
                    CP:  1.03D+00
 E= -691.791368501965     Delta-E=       -0.000019195569 Rises=F Damp=F
 DIIS: error= 3.44D-05 at cycle   7 NSaved=   7.
 NSaved= 7 IEnMin= 7 EnMin= -691.791368501965     IErMin= 7 ErrMin= 3.44D-05
 ErrMax= 3.44D-05  0.00D+00 EMaxC= 1.00D-01 BMatC= 9.61D-07 BMatP= 1.68D-05
 IDIUse=1 WtCom= 1.00D+00 WtEn= 0.00D+00
 Coeff-Com: -0.996D-03 0.115D-02 0.906D-02 0.201D-01 0.943D-01 0.230D+00
 Coeff-Com:  0.646D+00
 Coeff:     -0.996D-03 0.115D-02 0.906D-02 0.201D-01 0.943D-01 0.230D+00
 Coeff:      0.646D+00
 Gap=     0.216 Goal=   None    Shift=    0.000
 RMSDP=1.93D-05 MaxDP=8.16D-04 DE=-1.92D-05 OVMax= 3.75D-04

 Cycle   8  Pass 0  IDiag  1:
 RMSU=  1.14D-05    CP:  9.93D-01  1.08D+00  8.54D-01  6.34D-01  9.06D-01
                    CP:  1.16D+00  1.78D+00
 E= -691.791373395169     Delta-E=       -0.000004893205 Rises=F Damp=F
 DIIS: error= 1.82D-05 at cycle   8 NSaved=   8.
 NSaved= 8 IEnMin= 8 EnMin= -691.791373395169     IErMin= 8 ErrMin= 1.82D-05
 ErrMax= 1.82D-05  0.00D+00 EMaxC= 1.00D-01 BMatC= 2.52D-07 BMatP= 9.61D-07
 IDIUse=1 WtCom= 1.00D+00 WtEn= 0.00D+00
 Coeff-Com:  0.784D-04-0.521D-03-0.609D-03-0.598D-03 0.101D-01 0.707D-01
 Coeff-Com:  0.380D+00 0.541D+00
 Coeff:      0.784D-04-0.521D-03-0.609D-03-0.598D-03 0.101D-01 0.707D-01
 Coeff:      0.380D+00 0.541D+00
 Gap=     0.216 Goal=   None    Shift=    0.000
 RMSDP=2.10D-05 MaxDP=1.32D-03 DE=-4.89D-06 OVMax= 1.73D-04

 Cycle   9  Pass 0  IDiag  1:
 RMSU=  8.39D-06    CP:  9.93D-01  1.08D+00  8.58D-01  6.34D-01  8.84D-01
                    CP:  1.14D+00  2.29D+00  2.39D+00
 E= -691.791377936820     Delta-E=       -0.000004541651 Rises=F Damp=F
 DIIS: error= 1.12D-05 at cycle   9 NSaved=   9.
 NSaved= 9 IEnMin= 9 EnMin= -691.791377936820     IErMin= 9 ErrMin= 1.12D-05
 ErrMax= 1.12D-05  0.00D+00 EMaxC= 1.00D-01 BMatC= 4.01D-08 BMatP= 2.52D-07
 IDIUse=1 WtCom= 1.00D+00 WtEn= 0.00D+00
 Coeff-Com:  0.812D-04-0.326D-03-0.692D-03-0.122D-02 0.141D-02 0.265D-01
 Coeff-Com:  0.161D+00 0.290D+00 0.523D+00
 Coeff:      0.812D-04-0.326D-03-0.692D-03-0.122D-02 0.141D-02 0.265D-01
 Coeff:      0.161D+00 0.290D+00 0.523D+00
 Gap=     0.216 Goal=   None    Shift=    0.000
 RMSDP=2.81D-05 MaxDP=2.07D-03 DE=-4.54D-06 OVMax= 3.29D-05

 Cycle  10  Pass 0  IDiag  1:
 RMSU=  1.25D-05    CP:  9.93D-01  1.09D+00  8.66D-01  6.28D-01  8.60D-01
                    CP:  1.02D+00  2.55D+00  3.00D+00  2.59D+00
 E= -691.791380281490     Delta-E=       -0.000002344670 Rises=F Damp=F
 DIIS: error= 1.34D-05 at cycle  10 NSaved=  10.
 NSaved=10 IEnMin=10 EnMin= -691.791380281490     IErMin= 9 ErrMin= 1.12D-05
 ErrMax= 1.34D-05  0.00D+00 EMaxC= 1.00D-01 BMatC= 5.39D-08 BMatP= 4.01D-08
 IDIUse=1 WtCom= 1.00D+00 WtEn= 0.00D+00
 Coeff-Com:  0.865D-04-0.336D-03-0.739D-03-0.132D-02 0.111D-02 0.263D-01
 Coeff-Com:  0.162D+00 0.298D+00 0.573D+00-0.588D-01
 Coeff:      0.865D-04-0.336D-03-0.739D-03-0.132D-02 0.111D-02 0.263D-01
 Coeff:      0.162D+00 0.298D+00 0.573D+00-0.588D-01
 Gap=     0.216 Goal=   None    Shift=    0.000
 RMSDP=2.44D-06 MaxDP=1.81D-04 DE=-2.34D-06 OVMax= 2.46D-06

 Initial convergence to 1.0D-05 achieved.  Increase integral accuracy.
 Cycle  11  Pass 1  IDiag  1:
 E= -691.791314634877     Delta-E=        0.000065646613 Rises=F Damp=F
 DIIS: error= 6.45D-04 at cycle   1 NSaved=   1.
 NSaved= 1 IEnMin= 1 EnMin= -691.791314634877     IErMin= 1 ErrMin= 6.45D-04
 ErrMax= 6.45D-04  0.00D+00 EMaxC= 1.00D-01 BMatC= 6.34D-05 BMatP= 6.34D-05
 IDIUse=3 WtCom= 9.94D-01 WtEn= 6.45D-03
 Coeff-Com:  0.100D+01
 Coeff-En:   0.100D+01
 Coeff:      0.100D+01
 Gap=     0.216 Goal=   None    Shift=    0.000
 RMSDP=2.44D-06 MaxDP=1.81D-04 DE= 6.56D-05 OVMax= 7.79D-04

 Cycle  12  Pass 1  IDiag  1:
 RMSU=  9.05D-04    CP:  9.60D-01
 E= -691.791347723726     Delta-E=       -0.000033088849 Rises=F Damp=F
 DIIS: error= 3.85D-06 at cycle   2 NSaved=   2.
 NSaved= 2 IEnMin= 2 EnMin= -691.791347723726     IErMin= 2 ErrMin= 3.85D-06
 ErrMax= 3.85D-06  0.00D+00 EMaxC= 1.00D-01 BMatC= 1.55D-08 BMatP= 6.34D-05
 IDIUse=1 WtCom= 1.00D+00 WtEn= 0.00D+00
 Coeff-Com: -0.720D-02 0.101D+01
 Coeff:     -0.720D-02 0.101D+01
 Gap=     0.216 Goal=   None    Shift=    0.000
 RMSDP=1.39D-05 MaxDP=6.07D-04 DE=-3.31D-05 OVMax= 5.18D-05

 Cycle  13  Pass 1  IDiag  1:
 RMSU=  6.74D-06    CP:  9.59D-01  1.01D+00
 E= -691.791347730798     Delta-E=       -0.000000007073 Rises=F Damp=F
 DIIS: error= 3.62D-06 at cycle   3 NSaved=   3.
 NSaved= 3 IEnMin= 3 EnMin= -691.791347730798     IErMin= 3 ErrMin= 3.62D-06
 ErrMax= 3.62D-06  0.00D+00 EMaxC= 1.00D-01 BMatC= 1.21D-08 BMatP= 1.55D-08
 IDIUse=1 WtCom= 1.00D+00 WtEn= 0.00D+00
 Coeff-Com: -0.371D-02 0.501D+00 0.503D+00
 Coeff:     -0.371D-02 0.501D+00 0.503D+00
 Gap=     0.216 Goal=   None    Shift=    0.000
 RMSDP=2.64D-07 MaxDP=2.25D-05 DE=-7.07D-09 OVMax= 4.23D-05

 Cycle  14  Pass 1  IDiag  1:
 RMSU=  2.43D-07    CP:  9.59D-01  1.01D+00  1.01D+00
 E= -691.791347740885     Delta-E=       -0.000000010087 Rises=F Damp=F
 DIIS: error= 1.48D-06 at cycle   4 NSaved=   4.
 NSaved= 4 IEnMin= 4 EnMin= -691.791347740885     IErMin= 4 ErrMin= 1.48D-06
 ErrMax= 1.48D-06  0.00D+00 EMaxC= 1.00D-01 BMatC= 1.51D-09 BMatP= 1.21D-08
 IDIUse=1 WtCom= 1.00D+00 WtEn= 0.00D+00
 Coeff-Com: -0.525D-03 0.639D-01 0.261D+00 0.676D+00
 Coeff:     -0.525D-03 0.639D-01 0.261D+00 0.676D+00
 Gap=     0.216 Goal=   None    Shift=    0.000
 RMSDP=1.56D-07 MaxDP=7.22D-06 DE=-1.01D-08 OVMax= 1.51D-05

 Cycle  15  Pass 1  IDiag  1:
 RMSU=  1.02D-07    CP:  9.59D-01  1.01D+00  1.02D+00  8.75D-01
 E= -691.791347742235     Delta-E=       -0.000000001350 Rises=F Damp=F
 DIIS: error= 4.70D-07 at cycle   5 NSaved=   5.
 NSaved= 5 IEnMin= 5 EnMin= -691.791347742235     IErMin= 5 ErrMin= 4.70D-07
 ErrMax= 4.70D-07  0.00D+00 EMaxC= 1.00D-01 BMatC= 2.56D-10 BMatP= 1.51D-09
 IDIUse=1 WtCom= 1.00D+00 WtEn= 0.00D+00
 Coeff-Com:  0.611D-04-0.126D-01 0.101D+00 0.390D+00 0.521D+00
 Coeff:      0.611D-04-0.126D-01 0.101D+00 0.390D+00 0.521D+00
 Gap=     0.216 Goal=   None    Shift=    0.000
 RMSDP=4.91D-08 MaxDP=4.32D-06 DE=-1.35D-09 OVMax= 4.42D-06

 Cycle  16  Pass 1  IDiag  1:
 RMSU=  3.88D-08    CP:  9.59D-01  1.01D+00  1.03D+00  9.68D-01  9.50D-01
 E= -691.791347742444     Delta-E=       -0.000000000209 Rises=F Damp=F
 DIIS: error= 8.25D-08 at cycle   6 NSaved=   6.
 NSaved= 6 IEnMin= 6 EnMin= -691.791347742444     IErMin= 6 ErrMin= 8.25D-08
 ErrMax= 8.25D-08  0.00D+00 EMaxC= 1.00D-01 BMatC= 1.19D-11 BMatP= 2.56D-10
 IDIUse=1 WtCom= 1.00D+00 WtEn= 0.00D+00
 Coeff-Com:  0.682D-04-0.110D-01 0.322D-01 0.148D+00 0.259D+00 0.572D+00
 Coeff:      0.682D-04-0.110D-01 0.322D-01 0.148D+00 0.259D+00 0.572D+00
 Gap=     0.216 Goal=   None    Shift=    0.000
 RMSDP=9.44D-09 MaxDP=9.16D-07 DE=-2.09D-10 OVMax= 8.85D-07

 SCF Done:  E(RPBE1PBE) =  -691.791347742     A.U. after   16 cycles
            NFock= 16  Conv=0.94D-08     -V/T= 2.0047
 KE= 6.885864433966D+02 PE=-3.707940868796D+03 EE= 1.279285261169D+03
 Leave Link  502 at Fri May 17 10:26:23 2024, MaxMem=  6291456000 cpu:      9425.3
 (Enter /home/madghost/g09/l601.exe)
 Copying SCF densities to generalized density rwf, IOpCl= 0 IROHF=0.

 **********************************************************************

            Population analysis using the SCF density.

 **********************************************************************

 Orbital symmetries:
       Occupied  (A) (A) (A) (A) (A) (A) (A) (A) (A) (A) (A) (A)
                 (A) (A) (A) (A) (A) (A) (A) (A) (A) (A) (A) (A)
                 (A) (A) (A) (A) (A) (A) (A) (A) (A) (A) (A) (A)
                 (A) (A) (A) (A) (A) (A) (A) (A) (A) (A) (A) (A)
                 (A) (A) (A) (A) (A) (A) (A) (A) (A)
       Virtual   (A) (A) (A) (A) (A) (A) (A) (A) (A) (A) (A) (A)
                 (A) (A) (A) (A) (A) (A) (A) (A) (A) (A) (A) (A)
                 (A) (A) (A) (A) (A) (A) (A) (A) (A) (A) (A) (A)
                 (A) (A) (A) (A) (A) (A) (A) (A) (A) (A) (A) (A)
                 (A) (A) (A) (A) (A) (A) (A) (A) (A) (A) (A) (A)
                 (A) (A) (A) (A) (A) (A) (A) (A) (A) (A) (A) (A)
                 (A) (A) (A) (A) (A) (A) (A) (A) (A) (A) (A) (A)
                 (A) (A) (A) (A) (A) (A) (A) (A) (A) (A) (A) (A)
                 (A) (A) (A) (A) (A) (A) (A) (A) (A) (A) (A) (A)
                 (A) (A) (A) (A) (A) (A) (A) (A) (A) (A) (A) (A)
                 (A) (A) (A) (A) (A) (A) (A) (A) (A) (A) (A) (A)
                 (A) (A) (A) (A) (A) (A) (A) (A) (A) (A) (A) (A)
                 (A) (A) (A) (A) (A) (A) (A) (A) (A) (A) (A) (A)
                 (A) (A) (A) (A) (A) (A) (A) (A) (A) (A) (A) (A)
                 (A) (A) (A) (A) (A) (A) (A) (A) (A) (A) (A) (A)
                 (A) (A) (A) (A) (A) (A) (A) (A) (A) (A) (A) (A)
                 (A) (A) (A) (A) (A) (A) (A) (A) (A) (A) (A) (A)
                 (A) (A) (A) (A) (A) (A) (A) (A) (A) (A) (A) (A)
                 (A) (A) (A) (A) (A) (A) (A) (A) (A) (A) (A) (A)
                 (A) (A) (A) (A) (A) (A) (A) (A) (A) (A) (A) (A)
                 (A) (A) (A) (A) (A) (A) (A) (A) (A) (A) (A) (A)
                 (A) (A) (A) (A) (A) (A) (A) (A) (A) (A) (A) (A)
                 (A) (A) (A) (A) (A) (A) (A) (A) (A) (A) (A) (A)
                 (A) (A) (A) (A) (A) (A) (A) (A) (A) (A) (A) (A)
                 (A) (A) (A) (A) (A) (A) (A) (A) (A) (A) (A) (A)
                 (A) (A) (A) (A) (A) (A) (A) (A) (A) (A) (A) (A)
                 (A) (A) (A) (A) (A) (A) (A) (A) (A) (A) (A) (A)
                 (A) (A) (A) (A) (A) (A) (A) (A) (A) (A) (A) (A)
                 (A) (A) (A) (A) (A) (A) (A) (A) (A) (A) (A) (A)
                 (A) (A) (A) (A) (A) (A) (A) (A) (A) (A) (A) (A)
                 (A) (A) (A) (A) (A) (A) (A) (A) (A) (A) (A) (A)
                 (A) (A) (A) (A) (A) (A) (A) (A) (A) (A) (A) (A)
                 (A) (A) (A) (A) (A) (A) (A) (A) (A) (A) (A) (A)
                 (A) (A) (A) (A) (A) (A) (A) (A) (A) (A) (A) (A)
                 (A) (A) (A) (A) (A) (A) (A) (A) (A) (A) (A) (A)
                 (A) (A) (A) (A) (A) (A) (A) (A) (A) (A) (A) (A)
                 (A) (A) (A) (A) (A) (A) (A) (A) (A) (A) (A) (A)
                 (A) (A) (A) (A) (A) (A) (A) (A) (A) (A) (A) (A)
                 (A) (A) (A) (A) (A) (A) (A) (A) (A) (A) (A) (A)
                 (A) (A) (A) (A) (A) (A) (A) (A) (A) (A) (A) (A)
                 (A) (A) (A) (A) (A) (A) (A) (A) (A) (A) (A) (A)
                 (A) (A) (A) (A) (A) (A) (A) (A) (A) (A) (A) (A)
                 (A) (A) (A) (A) (A) (A) (A) (A) (A) (A) (A) (A)
                 (A) (A) (A) (A) (A) (A) (A) (A) (A) (A) (A) (A)
                 (A) (A) (A) (A) (A) (A) (A) (A) (A) (A) (A) (A)
                 (A) (A) (A) (A) (A) (A) (A) (A) (A) (A) (A) (A)
                 (A) (A) (A) (A) (A) (A) (A) (A) (A) (A) (A) (A)
                 (A) (A) (A) (A) (A) (A) (A) (A) (A) (A) (A) (A)
                 (A) (A) (A) (A) (A) (A) (A) (A) (A) (A) (A) (A)
                 (A) (A) (A) (A) (A) (A) (A) (A) (A) (A) (A) (A)
                 (A) (A) (A) (A) (A) (A) (A) (A) (A) (A) (A) (A)
                 (A) (A) (A) (A) (A) (A) (A) (A) (A) (A) (A) (A)
                 (A) (A) (A) (A) (A) (A) (A) (A) (A) (A) (A)
 The electronic state is 1-A.
 Alpha  occ. eigenvalues --  -19.24521 -19.23948 -10.29105 -10.28655 -10.28580
 Alpha  occ. eigenvalues --  -10.28259 -10.23329 -10.23116 -10.23073 -10.22426
 Alpha  occ. eigenvalues --  -10.22326 -10.22205 -10.22191 -10.21756 -10.21567
 Alpha  occ. eigenvalues --  -10.21334  -1.11408  -1.09864  -0.88804  -0.87814
 Alpha  occ. eigenvalues --   -0.81548  -0.77870  -0.77465  -0.76700  -0.74467
 Alpha  occ. eigenvalues --   -0.68600  -0.63715  -0.62889  -0.61954  -0.60018
 Alpha  occ. eigenvalues --   -0.56693  -0.55445  -0.51712  -0.51441  -0.50269
 Alpha  occ. eigenvalues --   -0.49472  -0.48908  -0.46429  -0.45778  -0.44308
 Alpha  occ. eigenvalues --   -0.43531  -0.43206  -0.42959  -0.41837  -0.39685
 Alpha  occ. eigenvalues --   -0.38269  -0.37981  -0.36987  -0.36713  -0.35823
 Alpha  occ. eigenvalues --   -0.34259  -0.33632  -0.32979  -0.27456  -0.26304
 Alpha  occ. eigenvalues --   -0.24328  -0.22974
 Alpha virt. eigenvalues --   -0.01408  -0.00345   0.00288   0.01306   0.04440
 Alpha virt. eigenvalues --    0.06368   0.06475   0.07737   0.08698   0.09225
 Alpha virt. eigenvalues --    0.09654   0.10428   0.10496   0.10987   0.11649
 Alpha virt. eigenvalues --    0.12013   0.12648   0.13360   0.13968   0.15505
 Alpha virt. eigenvalues --    0.16264   0.16795   0.17266   0.18305   0.19447
 Alpha virt. eigenvalues --    0.20718   0.21203   0.21351   0.21698   0.22038
 Alpha virt. eigenvalues --    0.22660   0.23350   0.23727   0.24245   0.24739
 Alpha virt. eigenvalues --    0.24840   0.25565   0.25846   0.27311   0.27719
 Alpha virt. eigenvalues --    0.28757   0.29353   0.29721   0.30204   0.30791
 Alpha virt. eigenvalues --    0.31226   0.31925   0.32929   0.33964   0.34265
 Alpha virt. eigenvalues --    0.35283   0.35943   0.36384   0.36575   0.37285
 Alpha virt. eigenvalues --    0.37559   0.37846   0.38179   0.38923   0.39954
 Alpha virt. eigenvalues --    0.40402   0.40507   0.41202   0.41745   0.42049
 Alpha virt. eigenvalues --    0.42360   0.43597   0.43914   0.44118   0.44905
 Alpha virt. eigenvalues --    0.45207   0.45444   0.45930   0.46638   0.46835
 Alpha virt. eigenvalues --    0.47093   0.48027   0.48620   0.49503   0.50006
 Alpha virt. eigenvalues --    0.50508   0.50856   0.51009   0.51838   0.52228
 Alpha virt. eigenvalues --    0.52442   0.53454   0.53844   0.55196   0.56198
 Alpha virt. eigenvalues --    0.57776   0.59272   0.60235   0.61208   0.62321
 Alpha virt. eigenvalues --    0.63597   0.64212   0.65273   0.66089   0.66829
 Alpha virt. eigenvalues --    0.67547   0.68358   0.68644   0.69602   0.70076
 Alpha virt. eigenvalues --    0.70287   0.70382   0.71468   0.72289   0.73034
 Alpha virt. eigenvalues --    0.73384   0.74338   0.75027   0.75219   0.76251
 Alpha virt. eigenvalues --    0.77653   0.77945   0.78333   0.79728   0.80185
 Alpha virt. eigenvalues --    0.80587   0.81286   0.82920   0.83747   0.84750
 Alpha virt. eigenvalues --    0.85396   0.85893   0.85989   0.88484   0.88824
 Alpha virt. eigenvalues --    0.90632   0.91384   0.91936   0.92793   0.93626
 Alpha virt. eigenvalues --    0.94424   0.95438   0.96142   0.97547   0.98468
 Alpha virt. eigenvalues --    0.98626   0.99257   0.99992   1.00479   1.00820
 Alpha virt. eigenvalues --    1.01284   1.03391   1.03826   1.04092   1.04715
 Alpha virt. eigenvalues --    1.05814   1.07029   1.07658   1.08722   1.09441
 Alpha virt. eigenvalues --    1.09817   1.11054   1.11810   1.11863   1.12276
 Alpha virt. eigenvalues --    1.13837   1.15027   1.15570   1.16397   1.16887
 Alpha virt. eigenvalues --    1.18131   1.18657   1.19246   1.21471   1.22127
 Alpha virt. eigenvalues --    1.23016   1.23404   1.23924   1.24413   1.24866
 Alpha virt. eigenvalues --    1.25451   1.27127   1.27842   1.28498   1.30363
 Alpha virt. eigenvalues --    1.30726   1.31510   1.32066   1.32774   1.33318
 Alpha virt. eigenvalues --    1.33921   1.34037   1.34925   1.35425   1.36360
 Alpha virt. eigenvalues --    1.36402   1.37918   1.38808   1.39107   1.39763
 Alpha virt. eigenvalues --    1.41275   1.41803   1.42317   1.42935   1.45713
 Alpha virt. eigenvalues --    1.45888   1.46391   1.47341   1.48181   1.48499
 Alpha virt. eigenvalues --    1.50048   1.50389   1.51145   1.51803   1.53477
 Alpha virt. eigenvalues --    1.54365   1.55107   1.55730   1.56284   1.57605
 Alpha virt. eigenvalues --    1.58833   1.59816   1.60730   1.61168   1.62155
 Alpha virt. eigenvalues --    1.62389   1.63106   1.63593   1.65201   1.65944
 Alpha virt. eigenvalues --    1.66798   1.69463   1.70304   1.70508   1.71483
 Alpha virt. eigenvalues --    1.72934   1.74697   1.75109   1.75392   1.76990
 Alpha virt. eigenvalues --    1.77442   1.79641   1.80904   1.82708   1.85089
 Alpha virt. eigenvalues --    1.85975   1.87316   1.88297   1.90279   1.93114
 Alpha virt. eigenvalues --    1.93780   1.95146   1.95414   1.97640   1.98237
 Alpha virt. eigenvalues --    1.99746   2.00409   2.00936   2.01959   2.02705
 Alpha virt. eigenvalues --    2.04308   2.05684   2.06736   2.07151   2.08252
 Alpha virt. eigenvalues --    2.09224   2.11551   2.12711   2.15034   2.17969
 Alpha virt. eigenvalues --    2.18423   2.20235   2.23181   2.24910   2.26424
 Alpha virt. eigenvalues --    2.26817   2.28595   2.29548   2.30360   2.30533
 Alpha virt. eigenvalues --    2.34249   2.36053   2.37028   2.38022   2.38401
 Alpha virt. eigenvalues --    2.38838   2.39001   2.40193   2.40733   2.43327
 Alpha virt. eigenvalues --    2.45254   2.46661   2.47805   2.50488   2.50912
 Alpha virt. eigenvalues --    2.54559   2.56997   2.58410   2.58874   2.61671
 Alpha virt. eigenvalues --    2.62757   2.64121   2.65087   2.66716   2.67250
 Alpha virt. eigenvalues --    2.67809   2.70326   2.70948   2.71630   2.72453
 Alpha virt. eigenvalues --    2.73531   2.74338   2.75439   2.76369   2.77160
 Alpha virt. eigenvalues --    2.78095   2.78785   2.79127   2.80088   2.80579
 Alpha virt. eigenvalues --    2.81260   2.81957   2.82465   2.83514   2.84635
 Alpha virt. eigenvalues --    2.85530   2.86102   2.87909   2.89158   2.91193
 Alpha virt. eigenvalues --    2.91469   2.92198   2.92827   2.93082   2.94125
 Alpha virt. eigenvalues --    2.95015   2.95700   2.96816   2.98262   2.98699
 Alpha virt. eigenvalues --    2.99962   3.01180   3.02631   3.03345   3.04256
 Alpha virt. eigenvalues --    3.04387   3.05047   3.05194   3.05772   3.06015
 Alpha virt. eigenvalues --    3.06320   3.07183   3.07554   3.07988   3.08602
 Alpha virt. eigenvalues --    3.10177   3.10706   3.11680   3.12134   3.12732
 Alpha virt. eigenvalues --    3.14672   3.15284   3.15830   3.16453   3.17090
 Alpha virt. eigenvalues --    3.17574   3.18670   3.19201   3.19560   3.20072
 Alpha virt. eigenvalues --    3.20966   3.21483   3.22619   3.23259   3.24125
 Alpha virt. eigenvalues --    3.24308   3.24627   3.25721   3.26665   3.27186
 Alpha virt. eigenvalues --    3.28869   3.29252   3.29843   3.29951   3.31547
 Alpha virt. eigenvalues --    3.33150   3.33186   3.34319   3.34861   3.35127
 Alpha virt. eigenvalues --    3.35287   3.35732   3.36780   3.37300   3.38076
 Alpha virt. eigenvalues --    3.38659   3.39242   3.39666   3.40332   3.40696
 Alpha virt. eigenvalues --    3.42153   3.43531   3.44518   3.45326   3.46608
 Alpha virt. eigenvalues --    3.47997   3.49358   3.49704   3.50424   3.51309
 Alpha virt. eigenvalues --    3.51565   3.53860   3.54798   3.54959   3.55446
 Alpha virt. eigenvalues --    3.56069   3.57000   3.58454   3.58793   3.59957
 Alpha virt. eigenvalues --    3.60847   3.62332   3.63669   3.64385   3.65212
 Alpha virt. eigenvalues --    3.66675   3.67665   3.69292   3.70811   3.71510
 Alpha virt. eigenvalues --    3.71834   3.74457   3.75305   3.76234   3.77846
 Alpha virt. eigenvalues --    3.78280   3.78307   3.79332   3.79735   3.80109
 Alpha virt. eigenvalues --    3.80358   3.80577   3.80870   3.81763   3.82360
 Alpha virt. eigenvalues --    3.83584   3.83970   3.84900   3.85625   3.86271
 Alpha virt. eigenvalues --    3.86444   3.86924   3.87238   3.88634   3.89193
 Alpha virt. eigenvalues --    3.89942   3.92199   3.92959   3.93786   3.94870
 Alpha virt. eigenvalues --    3.95000   3.97234   3.98639   3.99103   4.01754
 Alpha virt. eigenvalues --    4.02375   4.04149   4.05470   4.05906   4.06767
 Alpha virt. eigenvalues --    4.08497   4.09732   4.09902   4.11079   4.12050
 Alpha virt. eigenvalues --    4.12693   4.14606   4.16241   4.16912   4.17190
 Alpha virt. eigenvalues --    4.17940   4.19232   4.20380   4.21190   4.22584
 Alpha virt. eigenvalues --    4.23912   4.24395   4.24888   4.25038   4.26424
 Alpha virt. eigenvalues --    4.26718   4.27229   4.27852   4.29085   4.29642
 Alpha virt. eigenvalues --    4.30115   4.30837   4.31445   4.32566   4.33525
 Alpha virt. eigenvalues --    4.33731   4.34935   4.35425   4.36789   4.37043
 Alpha virt. eigenvalues --    4.38880   4.41441   4.42756   4.43297   4.46295
 Alpha virt. eigenvalues --    4.48675   4.50976   4.51440   4.53120   4.55237
 Alpha virt. eigenvalues --    4.56795   4.57339   4.58944   4.59718   4.61749
 Alpha virt. eigenvalues --    4.65169   4.66213   4.66665   4.67762   4.68276
 Alpha virt. eigenvalues --    4.68945   4.70952   4.71649   4.72335   4.73260
 Alpha virt. eigenvalues --    4.73622   4.74916   4.75522   4.77937   4.78593
 Alpha virt. eigenvalues --    4.79478   4.79877   4.80428   4.80975   4.82306
 Alpha virt. eigenvalues --    4.82865   4.85022   4.85433   4.87249   4.88061
 Alpha virt. eigenvalues --    4.89725   4.92394   4.93336   4.94494   4.98388
 Alpha virt. eigenvalues --    5.00472   5.00608   5.01461   5.02547   5.02987
 Alpha virt. eigenvalues --    5.06158   5.10295   5.11898   5.12494   5.12827
 Alpha virt. eigenvalues --    5.17417   5.21472   5.22874   5.24236   5.24924
 Alpha virt. eigenvalues --    5.29807   5.31294   5.32041   5.33045   5.34593
 Alpha virt. eigenvalues --    5.35265   5.37074   5.39127   5.39783   5.40187
 Alpha virt. eigenvalues --    5.41934   5.42809   5.43576   5.44904   5.46335
 Alpha virt. eigenvalues --    5.48173   5.50140   5.55045   5.56396   5.58031
 Alpha virt. eigenvalues --    5.58344   5.62058   5.63396   5.65631   5.67191
 Alpha virt. eigenvalues --    5.70353   5.71912   5.75041   5.76088   5.81507
 Alpha virt. eigenvalues --    5.82878   5.90838   5.91829   5.93640   5.98938
 Alpha virt. eigenvalues --    5.99934   6.03396   6.09367   6.12437   6.14159
 Alpha virt. eigenvalues --    6.17716   6.29661   6.31049   6.49837   6.52578
 Alpha virt. eigenvalues --    6.57155   6.59111   6.75397   6.79648   6.85297
 Alpha virt. eigenvalues --    6.86564   6.95953   6.97010   7.05004   7.08777
 Alpha virt. eigenvalues --    7.34597   7.38266   7.54868   7.57026  22.70159
 Alpha virt. eigenvalues --   22.81225  23.20202  23.21744  23.27772  23.29342
 Alpha virt. eigenvalues --   23.31743  23.33382  23.38830  23.39679  23.45807
 Alpha virt. eigenvalues --   23.52765  24.16277  24.17410  44.61286  44.62688
          Condensed to atoms (all electrons):
               1          2          3          4          5          6
     1  C    4.848105   0.387600   0.427232   0.318863  -0.021428  -0.069679
     2  H    0.387600   0.564956  -0.009346  -0.026794  -0.002135   0.003554
     3  H    0.427232  -0.009346   0.608057  -0.068592   0.007153   0.003068
     4  C    0.318863  -0.026794  -0.068592   4.776733   0.388701   0.422338
     5  H   -0.021428  -0.002135   0.007153   0.388701   0.566300  -0.017245
     6  H   -0.069679   0.003554   0.003068   0.422338  -0.017245   0.621557
     7  O    0.258577  -0.030488  -0.042395  -0.044456   0.003040   0.006379
     8  O   -0.065875   0.004772  -0.002910   0.286767  -0.029778  -0.033998
     9  C   -0.071510   0.007467  -0.018651   0.008130  -0.003084   0.001251
    10  C   -0.002541  -0.001135   0.013059  -0.005123   0.002200   0.000394
    11  C   -0.006410   0.000094   0.006757  -0.000953   0.000551  -0.000038
    12  C   -0.002590   0.000125  -0.007131   0.001446  -0.000351   0.000052
    13  C   -0.000741   0.000066  -0.001188   0.000377  -0.000109   0.000000
    14  C    0.000344  -0.000025   0.001114  -0.000278   0.000068  -0.000001
    15  H    0.005418  -0.000470   0.004786  -0.003655   0.000086  -0.000290
    16  H    0.000268  -0.000195   0.000422  -0.000396   0.000240  -0.000003
    17  H   -0.000019  -0.000001  -0.000048   0.000015   0.000000   0.000001
    18  H    0.000019   0.000000  -0.000006   0.000001  -0.000002   0.000000
    19  H   -0.000003   0.000000   0.000006   0.000000   0.000000   0.000000
    20  C    0.030235   0.000917   0.005581  -0.076999   0.004482  -0.018263
    21  C   -0.002102   0.000071   0.000343  -0.003113  -0.000402   0.005982
    22  C    0.000590  -0.000725  -0.008015   0.003719  -0.001531   0.002209
    23  C    0.000253  -0.000009   0.000244  -0.000982   0.000143  -0.000475
    24  C    0.002478  -0.000046   0.002662  -0.005169   0.000381  -0.003034
    25  C   -0.000505   0.000008  -0.000262   0.000721  -0.000057   0.000421
    26  H   -0.000246  -0.000006  -0.000053   0.000260  -0.000218   0.000255
    27  H   -0.003274   0.000314  -0.002055   0.006907  -0.000392   0.001594
    28  H    0.000002   0.000000  -0.000001   0.000025   0.000000  -0.000004
    29  H   -0.000024   0.000000   0.000056  -0.000025   0.000000   0.000007
    30  H    0.000002   0.000000  -0.000001  -0.000003   0.000000   0.000003
               7          8          9         10         11         12
     1  C    0.258577  -0.065875  -0.071510  -0.002541  -0.006410  -0.002590
     2  H   -0.030488   0.004772   0.007467  -0.001135   0.000094   0.000125
     3  H   -0.042395  -0.002910  -0.018651   0.013059   0.006757  -0.007131
     4  C   -0.044456   0.286767   0.008130  -0.005123  -0.000953   0.001446
     5  H    0.003040  -0.029778  -0.003084   0.002200   0.000551  -0.000351
     6  H    0.006379  -0.033998   0.001251   0.000394  -0.000038   0.000052
     7  O    7.843698   0.002724   0.358232  -0.079764  -0.046649   0.010857
     8  O    0.002724   7.843372   0.005949   0.010074  -0.001058   0.000903
     9  C    0.358232   0.005949   4.932191   0.214140   0.392616   0.118444
    10  C   -0.079764   0.010074   0.214140   5.233986   0.091040   0.299257
    11  C   -0.046649  -0.001058   0.392616   0.091040   4.960929  -0.112071
    12  C    0.010857   0.000903   0.118444   0.299257  -0.112071   5.016342
    13  C    0.001231   0.000078   0.028009  -0.116397   0.512485   0.023348
    14  C   -0.000451  -0.000125  -0.109431   0.029384  -0.006148   0.477202
    15  H   -0.008121  -0.008328  -0.058379   0.430874   0.004581  -0.024882
    16  H    0.011564  -0.000011  -0.065455   0.019114   0.425381  -0.005853
    17  H   -0.000162   0.000025   0.000651  -0.018825   0.002441   0.401028
    18  H   -0.000197   0.000000   0.012719  -0.004249  -0.037355   0.010305
    19  H    0.000016   0.000000  -0.001177   0.010185   0.006694  -0.034121
    20  C    0.001394   0.325953  -0.005156  -0.006756  -0.000592  -0.000030
    21  C    0.000791  -0.040342  -0.000384  -0.006573  -0.000126   0.003989
    22  C   -0.000141  -0.076678   0.002199  -0.003069  -0.000375   0.001139
    23  C   -0.000040   0.002573  -0.000217  -0.001722   0.000034  -0.000834
    24  C   -0.000032   0.009314  -0.000477  -0.000307   0.000028  -0.000594
    25  C    0.000010  -0.000164   0.000169   0.001248  -0.000012   0.000199
    26  H   -0.000014   0.010367   0.000557   0.000346  -0.000061   0.000645
    27  H    0.000048  -0.005873   0.000175   0.000254  -0.000012   0.000011
    28  H    0.000000  -0.000190  -0.000010  -0.000033   0.000001  -0.000035
    29  H    0.000000  -0.000175   0.000008  -0.000008   0.000000   0.000000
    30  H    0.000000   0.000016   0.000001   0.000003   0.000000   0.000002
              13         14         15         16         17         18
     1  C   -0.000741   0.000344   0.005418   0.000268  -0.000019   0.000019
     2  H    0.000066  -0.000025  -0.000470  -0.000195  -0.000001   0.000000
     3  H   -0.001188   0.001114   0.004786   0.000422  -0.000048  -0.000006
     4  C    0.000377  -0.000278  -0.003655  -0.000396   0.000015   0.000001
     5  H   -0.000109   0.000068   0.000086   0.000240   0.000000  -0.000002
     6  H    0.000000  -0.000001  -0.000290  -0.000003   0.000001   0.000000
     7  O    0.001231  -0.000451  -0.008121   0.011564  -0.000162  -0.000197
     8  O    0.000078  -0.000125  -0.008328  -0.000011   0.000025   0.000000
     9  C    0.028009  -0.109431  -0.058379  -0.065455   0.000651   0.012719
    10  C   -0.116397   0.029384   0.430874   0.019114  -0.018825  -0.004249
    11  C    0.512485  -0.006148   0.004581   0.425381   0.002441  -0.037355
    12  C    0.023348   0.477202  -0.024882  -0.005853   0.401028   0.010305
    13  C    4.808455   0.495590  -0.000169  -0.037835   0.003600   0.417962
    14  C    0.495590   4.867877   0.006713   0.012682  -0.025377  -0.039105
    15  H   -0.000169   0.006713   0.559214  -0.000198  -0.004221   0.000056
    16  H   -0.037835   0.012682  -0.000198   0.547834   0.000107  -0.008017
    17  H    0.003600  -0.025377  -0.004221   0.000107   0.530708  -0.000511
    18  H    0.417962  -0.039105   0.000056  -0.008017  -0.000511   0.543001
    19  H   -0.032971   0.412903  -0.000386  -0.000304  -0.003940  -0.004426
    20  C    0.000000  -0.000077   0.005212  -0.000022  -0.000298   0.000001
    21  C    0.000055  -0.000195   0.003058  -0.000001   0.000494   0.000000
    22  C    0.000049  -0.000105  -0.000379  -0.000002   0.000027   0.000000
    23  C    0.000007  -0.000066  -0.001039   0.000000   0.000356   0.000000
    24  C   -0.000010   0.000039  -0.000430   0.000000  -0.000024   0.000000
    25  C    0.000006  -0.000020  -0.000089   0.000000   0.000190   0.000000
    26  H    0.000024  -0.000060  -0.000174  -0.000001   0.000056   0.000000
    27  H    0.000001  -0.000002  -0.000445   0.000000   0.000004   0.000000
    28  H    0.000000   0.000001  -0.000019   0.000000   0.000008   0.000000
    29  H    0.000000   0.000000  -0.000078   0.000000   0.000000   0.000000
    30  H    0.000000   0.000000   0.000001   0.000000   0.000001   0.000000
              19         20         21         22         23         24
     1  C   -0.000003   0.030235  -0.002102   0.000590   0.000253   0.002478
     2  H    0.000000   0.000917   0.000071  -0.000725  -0.000009  -0.000046
     3  H    0.000006   0.005581   0.000343  -0.008015   0.000244   0.002662
     4  C    0.000000  -0.076999  -0.003113   0.003719  -0.000982  -0.005169
     5  H    0.000000   0.004482  -0.000402  -0.001531   0.000143   0.000381
     6  H    0.000000  -0.018263   0.005982   0.002209  -0.000475  -0.003034
     7  O    0.000016   0.001394   0.000791  -0.000141  -0.000040  -0.000032
     8  O    0.000000   0.325953  -0.040342  -0.076678   0.002573   0.009314
     9  C   -0.001177  -0.005156  -0.000384   0.002199  -0.000217  -0.000477
    10  C    0.010185  -0.006756  -0.006573  -0.003069  -0.001722  -0.000307
    11  C    0.006694  -0.000592  -0.000126  -0.000375   0.000034   0.000028
    12  C   -0.034121  -0.000030   0.003989   0.001139  -0.000834  -0.000594
    13  C   -0.032971   0.000000   0.000055   0.000049   0.000007  -0.000010
    14  C    0.412903  -0.000077  -0.000195  -0.000105  -0.000066   0.000039
    15  H   -0.000386   0.005212   0.003058  -0.000379  -0.001039  -0.000430
    16  H   -0.000304  -0.000022  -0.000001  -0.000002   0.000000   0.000000
    17  H   -0.003940  -0.000298   0.000494   0.000027   0.000356  -0.000024
    18  H   -0.004426   0.000001   0.000000   0.000000   0.000000   0.000000
    19  H    0.536072   0.000001  -0.000003   0.000000  -0.000003   0.000000
    20  C    0.000001   4.918610   0.439526   0.293140  -0.009295   0.059551
    21  C   -0.000003   0.439526   4.916702   0.042422   0.527446  -0.079664
    22  C    0.000000   0.293140   0.042422   5.193124  -0.090653   0.354147
    23  C   -0.000003  -0.009295   0.527446  -0.090653   4.802617  -0.002050
    24  C    0.000000   0.059551  -0.079664   0.354147  -0.002050   4.950547
    25  C   -0.000001  -0.084050  -0.025928   0.001846   0.511461   0.513449
    26  H   -0.000001  -0.053711   0.423205   0.015733  -0.035276  -0.004625
    27  H    0.000000  -0.052608   0.001662   0.431346   0.000842  -0.018778
    28  H    0.000000   0.010726  -0.032874  -0.002781   0.414828   0.008981
    29  H    0.000000   0.000683   0.002949  -0.018263   0.002639   0.395570
    30  H    0.000000  -0.000734   0.006034   0.009106  -0.030577  -0.031318
              25         26         27         28         29         30
     1  C   -0.000505  -0.000246  -0.003274   0.000002  -0.000024   0.000002
     2  H    0.000008  -0.000006   0.000314   0.000000   0.000000   0.000000
     3  H   -0.000262  -0.000053  -0.002055  -0.000001   0.000056  -0.000001
     4  C    0.000721   0.000260   0.006907   0.000025  -0.000025  -0.000003
     5  H   -0.000057  -0.000218  -0.000392   0.000000   0.000000   0.000000
     6  H    0.000421   0.000255   0.001594  -0.000004   0.000007   0.000003
     7  O    0.000010  -0.000014   0.000048   0.000000   0.000000   0.000000
     8  O   -0.000164   0.010367  -0.005873  -0.000190  -0.000175   0.000016
     9  C    0.000169   0.000557   0.000175  -0.000010   0.000008   0.000001
    10  C    0.001248   0.000346   0.000254  -0.000033  -0.000008   0.000003
    11  C   -0.000012  -0.000061  -0.000012   0.000001   0.000000   0.000000
    12  C    0.000199   0.000645   0.000011  -0.000035   0.000000   0.000002
    13  C    0.000006   0.000024   0.000001   0.000000   0.000000   0.000000
    14  C   -0.000020  -0.000060  -0.000002   0.000001   0.000000   0.000000
    15  H   -0.000089  -0.000174  -0.000445  -0.000019  -0.000078   0.000001
    16  H    0.000000  -0.000001   0.000000   0.000000   0.000000   0.000000
    17  H    0.000190   0.000056   0.000004   0.000008   0.000000   0.000001
    18  H    0.000000   0.000000   0.000000   0.000000   0.000000   0.000000
    19  H   -0.000001  -0.000001   0.000000   0.000000   0.000000   0.000000
    20  C   -0.084050  -0.053711  -0.052608   0.010726   0.000683  -0.000734
    21  C   -0.025928   0.423205   0.001662  -0.032874   0.002949   0.006034
    22  C    0.001846   0.015733   0.431346  -0.002781  -0.018263   0.009106
    23  C    0.511461  -0.035276   0.000842   0.414828   0.002639  -0.030577
    24  C    0.513449  -0.004625  -0.018778   0.008981   0.395570  -0.031318
    25  C    4.841456   0.011077   0.005200  -0.036743  -0.019798   0.411457
    26  H    0.011077   0.529544  -0.000301  -0.007097   0.000103  -0.000286
    27  H    0.005200  -0.000301   0.545647   0.000074  -0.003683  -0.000400
    28  H   -0.036743  -0.007097   0.000074   0.534510  -0.000509  -0.004096
    29  H   -0.019798   0.000103  -0.003683  -0.000509   0.528465  -0.003716
    30  H    0.411457  -0.000286  -0.000400  -0.004096  -0.003716   0.529427
 Mulliken charges:
               1
     1  C   -0.033037
     2  H    0.101429
     3  H    0.080114
     4  C    0.021536
     5  H    0.103387
     6  H    0.073965
     7  O   -0.245650
     8  O   -0.237384
     9  C    0.251025
    10  C   -0.109054
    11  C   -0.191771
    12  C   -0.176801
    13  C   -0.101919
    14  C   -0.122451
    15  H    0.091750
    16  H    0.100681
    17  H    0.113713
    18  H    0.109802
    19  H    0.111460
    20  C    0.212581
    21  C   -0.183024
    22  C   -0.148078
    23  C   -0.090208
    24  C   -0.150591
    25  C   -0.131292
    26  H    0.109959
    27  H    0.093744
    28  H    0.115238
    29  H    0.115800
    30  H    0.115077
 Sum of Mulliken charges =   0.00000
 Mulliken charges with hydrogens summed into heavy atoms:
               1
     1  C    0.148506
     4  C    0.198887
     7  O   -0.245650
     8  O   -0.237384
     9  C    0.251025
    10  C   -0.017304
    11  C   -0.091090
    12  C   -0.063088
    13  C    0.007884
    14  C   -0.010991
    20  C    0.212581
    21  C   -0.073065
    22  C   -0.054334
    23  C    0.025030
    24  C   -0.034791
    25  C   -0.016215
 Electronic spatial extent (au):  <R**2>=           3829.5052
 Charge=              0.0000 electrons
 Dipole moment (field-independent basis, Debye):
    X=             -1.2458    Y=              0.8913    Z=             -0.9548  Tot=              1.8051
 Quadrupole moment (field-independent basis, Debye-Ang):
   XX=            -93.4661   YY=            -83.5481   ZZ=            -95.1374
   XY=             -0.1873   XZ=              5.2678   YZ=             -2.9858
 Traceless Quadrupole moment (field-independent basis, Debye-Ang):
   XX=             -2.7489   YY=              7.1691   ZZ=             -4.4202
   XY=             -0.1873   XZ=              5.2678   YZ=             -2.9858
 Octapole moment (field-independent basis, Debye-Ang**2):
  XXX=             25.4246  YYY=             20.6705  ZZZ=              3.9037  XYY=             -8.0897
  XXY=            -11.9838  XXZ=             -1.9099  XZZ=            -10.7641  YZZ=              8.4683
  YYZ=              1.7262  XYZ=              3.7484
 Hexadecapole moment (field-independent basis, Debye-Ang**3):
 XXXX=          -3457.8834 YYYY=          -1246.4443 ZZZZ=           -396.3328 XXXY=             31.9281
 XXXZ=            121.9152 YYYX=              0.4149 YYYZ=             -3.4463 ZZZX=             10.6252
 ZZZY=             -9.7436 XXYY=           -765.2150 XXZZ=           -668.6792 YYZZ=           -286.0361
 XXYZ=             -5.7904 YYXZ=             -3.1113 ZZXY=             18.7965
 N-N= 1.048277816489D+03 E-N=-3.707940861647D+03  KE= 6.885864433966D+02
 No NMR shielding tensors so no spin-rotation constants.
 Leave Link  601 at Fri May 17 10:26:24 2024, MaxMem=  6291456000 cpu:        15.8
 (Enter /home/madghost/g09/l607.exe)
 ******************************Gaussian NBO Version 3.1******************************
             N A T U R A L   A T O M I C   O R B I T A L   A N D
          N A T U R A L   B O N D   O R B I T A L   A N A L Y S I S
 ******************************Gaussian NBO Version 3.1******************************

       /RESON  / : Allow strongly delocalized NBO set
       /E2PERT / : Analyze NBO Fock matrix
                   Print threshold set to  0.05
       /PLOT   / : Write information for the orbital plotter
       /ARCHIVE/ : Write the archive file to LFN 47
       /BNDIDX / : Print bond indices based on the NAO density matrix
       /FILE   / : Set to JOB38                                               

 Analyzing the SCF density

 Job title: c2h                                                             

 Storage needed:   1440014 in NPA,   1918463 in NBO,   1440952 in NLMO (6291451200 available)


 NATURAL POPULATIONS:  Natural atomic orbital occupancies 
                                                          
   NAO  Atom  No  lang   Type(AO)    Occupancy      Energy
 ----------------------------------------------------------
     1    C    1  S      Cor( 1S)     1.99922     -10.15798
     2    C    1  S      Val( 2S)     1.03489      -0.30737
     3    C    1  S      Ryd( 3S)     0.00249       1.33842
     4    C    1  S      Ryd( 4S)     0.00034       2.17298
     5    C    1  S      Ryd( 5S)     0.00000      21.67492
     6    C    1  px     Val( 2p)     0.81894      -0.09628
     7    C    1  px     Ryd( 3p)     0.00374       1.05497
     8    C    1  px     Ryd( 4p)     0.00022       1.48462
     9    C    1  py     Val( 2p)     1.16925      -0.13352
    10    C    1  py     Ryd( 3p)     0.00212       1.22529
    11    C    1  py     Ryd( 4p)     0.00045       1.70737
    12    C    1  pz     Val( 2p)     1.07633      -0.12274
    13    C    1  pz     Ryd( 3p)     0.00063       1.00482
    14    C    1  pz     Ryd( 4p)     0.00033       1.60507
    15    C    1  dxy    Ryd( 3d)     0.00094       1.57049
    16    C    1  dxy    Ryd( 4d)     0.00021       3.27403
    17    C    1  dxz    Ryd( 3d)     0.00175       1.75306
    18    C    1  dxz    Ryd( 4d)     0.00025       3.52668
    19    C    1  dyz    Ryd( 3d)     0.00160       1.63919
    20    C    1  dyz    Ryd( 4d)     0.00018       3.39824
    21    C    1  dx2y2  Ryd( 3d)     0.00182       1.75967
    22    C    1  dx2y2  Ryd( 4d)     0.00034       3.54205
    23    C    1  dz2    Ryd( 3d)     0.00066       1.59532
    24    C    1  dz2    Ryd( 4d)     0.00025       3.24838
    25    C    1  f(0)   Ryd( 4f)     0.00003       3.83847
    26    C    1  f(C1)  Ryd( 4f)     0.00006       3.91383
    27    C    1  f(S1)  Ryd( 4f)     0.00003       3.82212
    28    C    1  f(C2)  Ryd( 4f)     0.00009       4.02316
    29    C    1  f(S2)  Ryd( 4f)     0.00006       3.92611
    30    C    1  f(C3)  Ryd( 4f)     0.00002       3.91323
    31    C    1  f(S3)  Ryd( 4f)     0.00007       3.95279

    32    H    2  S      Val( 1S)     0.79867      -0.01281
    33    H    2  S      Ryd( 2S)     0.00059       1.01168
    34    H    2  S      Ryd( 3S)     0.00012       1.56807
    35    H    2  px     Ryd( 3p)     0.00002       3.94948
    36    H    2  px     Ryd( 2p)     0.00016       2.08247
    37    H    2  py     Ryd( 3p)     0.00051       4.20798
    38    H    2  py     Ryd( 2p)     0.00010       2.90939
    39    H    2  pz     Ryd( 3p)     0.00016       4.01819
    40    H    2  pz     Ryd( 2p)     0.00018       2.23256
    41    H    2  dxy    Ryd( 3d)     0.00002       4.03032
    42    H    2  dxz    Ryd( 3d)     0.00001       3.75175
    43    H    2  dyz    Ryd( 3d)     0.00007       4.29702
    44    H    2  dx2y2  Ryd( 3d)     0.00007       4.19545
    45    H    2  dz2    Ryd( 3d)     0.00002       3.89996

    46    H    3  S      Val( 1S)     0.80692      -0.01107
    47    H    3  S      Ryd( 2S)     0.00182       0.61655
    48    H    3  S      Ryd( 3S)     0.00029       2.32391
    49    H    3  px     Ryd( 2p)     0.00019       2.88715
    50    H    3  px     Ryd( 3p)     0.00009       3.48767
    51    H    3  py     Ryd( 2p)     0.00016       3.05841
    52    H    3  py     Ryd( 3p)     0.00011       3.53214
    53    H    3  pz     Ryd( 2p)     0.00019       3.30475
    54    H    3  pz     Ryd( 3p)     0.00008       3.58781
    55    H    3  dxy    Ryd( 3d)     0.00003       3.93801
    56    H    3  dxz    Ryd( 3d)     0.00002       4.06480
    57    H    3  dyz    Ryd( 3d)     0.00001       4.29819
    58    H    3  dx2y2  Ryd( 3d)     0.00004       3.98071
    59    H    3  dz2    Ryd( 3d)     0.00004       4.06138

    60    C    4  S      Cor( 1S)     1.99922     -10.15873
    61    C    4  S      Val( 2S)     1.03885      -0.30895
    62    C    4  S      Ryd( 3S)     0.00242       1.26045
    63    C    4  S      Ryd( 4S)     0.00020       2.44672
    64    C    4  S      Ryd( 5S)     0.00000      21.61398
    65    C    4  px     Val( 2p)     1.11604      -0.12671
    66    C    4  px     Ryd( 3p)     0.00192       1.15249
    67    C    4  px     Ryd( 4p)     0.00010       1.60225
    68    C    4  py     Val( 2p)     0.88293      -0.10877
    69    C    4  py     Ryd( 3p)     0.00220       1.01927
    70    C    4  py     Ryd( 4p)     0.00042       1.43465
    71    C    4  pz     Val( 2p)     1.05649      -0.11593
    72    C    4  pz     Ryd( 3p)     0.00325       1.06788
    73    C    4  pz     Ryd( 4p)     0.00033       1.71462
    74    C    4  dxy    Ryd( 3d)     0.00123       1.75898
    75    C    4  dxy    Ryd( 4d)     0.00016       3.32802
    76    C    4  dxz    Ryd( 3d)     0.00238       1.76443
    77    C    4  dxz    Ryd( 4d)     0.00016       3.50254
    78    C    4  dyz    Ryd( 3d)     0.00123       1.85961
    79    C    4  dyz    Ryd( 4d)     0.00028       3.50490
    80    C    4  dx2y2  Ryd( 3d)     0.00100       1.73177
    81    C    4  dx2y2  Ryd( 4d)     0.00019       3.26475
    82    C    4  dz2    Ryd( 3d)     0.00076       1.59291
    83    C    4  dz2    Ryd( 4d)     0.00025       3.08487
    84    C    4  f(0)   Ryd( 4f)     0.00003       3.79186
    85    C    4  f(C1)  Ryd( 4f)     0.00008       3.81888
    86    C    4  f(S1)  Ryd( 4f)     0.00002       4.04250
    87    C    4  f(C2)  Ryd( 4f)     0.00005       3.89614
    88    C    4  f(S2)  Ryd( 4f)     0.00009       4.02140
    89    C    4  f(C3)  Ryd( 4f)     0.00003       3.82554
    90    C    4  f(S3)  Ryd( 4f)     0.00004       3.93838

    91    H    5  S      Val( 1S)     0.78828      -0.00107
    92    H    5  S      Ryd( 2S)     0.00069       1.14480
    93    H    5  S      Ryd( 3S)     0.00009       1.41863
    94    H    5  px     Ryd( 3p)     0.00012       4.02331
    95    H    5  px     Ryd( 2p)     0.00012       2.16150
    96    H    5  py     Ryd( 3p)     0.00026       4.05399
    97    H    5  py     Ryd( 2p)     0.00008       2.46521
    98    H    5  pz     Ryd( 3p)     0.00032       4.12815
    99    H    5  pz     Ryd( 2p)     0.00009       2.60226
   100    H    5  dxy    Ryd( 3d)     0.00004       3.98269
   101    H    5  dxz    Ryd( 3d)     0.00003       4.12738
   102    H    5  dyz    Ryd( 3d)     0.00009       4.19030
   103    H    5  dx2y2  Ryd( 3d)     0.00003       3.87069
   104    H    5  dz2    Ryd( 3d)     0.00002       4.05252

   105    H    6  S      Val( 1S)     0.81786      -0.02341
   106    H    6  S      Ryd( 2S)     0.00128       0.88192
   107    H    6  S      Ryd( 3S)     0.00011       1.79608
   108    H    6  px     Ryd( 3p)     0.00036       4.22884
   109    H    6  px     Ryd( 2p)     0.00010       2.65695
   110    H    6  py     Ryd( 3p)     0.00023       3.98241
   111    H    6  py     Ryd( 2p)     0.00012       2.57315
   112    H    6  pz     Ryd( 3p)     0.00008       3.89219
   113    H    6  pz     Ryd( 2p)     0.00018       2.17144
   114    H    6  dxy    Ryd( 3d)     0.00008       4.22754
   115    H    6  dxz    Ryd( 3d)     0.00004       4.12588
   116    H    6  dyz    Ryd( 3d)     0.00003       3.86450
   117    H    6  dx2y2  Ryd( 3d)     0.00003       4.13317
   118    H    6  dz2    Ryd( 3d)     0.00004       3.83989

   119    O    7  S      Cor( 1S)     1.99973     -19.01999
   120    O    7  S      Val( 2S)     1.57308      -0.88549
   121    O    7  S      Ryd( 3S)     0.00088       1.41631
   122    O    7  S      Ryd( 4S)     0.00011       4.47133
   123    O    7  S      Ryd( 5S)     0.00000      43.63891
   124    O    7  px     Val( 2p)     1.53685      -0.31048
   125    O    7  px     Ryd( 3p)     0.00213       0.99053
   126    O    7  px     Ryd( 4p)     0.00020       3.93929
   127    O    7  py     Val( 2p)     1.51844      -0.31602
   128    O    7  py     Ryd( 3p)     0.00246       0.77501
   129    O    7  py     Ryd( 4p)     0.00026       4.00450
   130    O    7  pz     Val( 2p)     1.80434      -0.32577
   131    O    7  pz     Ryd( 3p)     0.00344       0.72391
   132    O    7  pz     Ryd( 4p)     0.00018       3.14338
   133    O    7  dxy    Ryd( 3d)     0.00177       2.04830
   134    O    7  dxy    Ryd( 4d)     0.00011       6.62874
   135    O    7  dxz    Ryd( 3d)     0.00189       1.88289
   136    O    7  dxz    Ryd( 4d)     0.00005       6.54751
   137    O    7  dyz    Ryd( 3d)     0.00158       1.83095
   138    O    7  dyz    Ryd( 4d)     0.00006       6.50740
   139    O    7  dx2y2  Ryd( 3d)     0.00504       2.04941
   140    O    7  dx2y2  Ryd( 4d)     0.00007       6.66683
   141    O    7  dz2    Ryd( 3d)     0.00250       1.85909
   142    O    7  dz2    Ryd( 4d)     0.00002       6.53806
   143    O    7  f(0)   Ryd( 4f)     0.00011       5.45196
   144    O    7  f(C1)  Ryd( 4f)     0.00009       5.45754
   145    O    7  f(S1)  Ryd( 4f)     0.00007       5.57464
   146    O    7  f(C2)  Ryd( 4f)     0.00004       5.62432
   147    O    7  f(S2)  Ryd( 4f)     0.00006       5.49902
   148    O    7  f(C3)  Ryd( 4f)     0.00007       5.88839
   149    O    7  f(S3)  Ryd( 4f)     0.00011       5.87680

   150    O    8  S      Cor( 1S)     1.99974     -19.02311
[...]
   20      25      29    -0.0032879      -0.0516966
   20      25      30     0.0038148       0.2017368
   20      25      31    -0.0029781      -0.0604378
   20      25      33     0.0036423       0.0348413
   20      25      35    -0.0665482      -0.0466082
   20      25      36     0.0039067       0.0409085
   20      25      57     0.0127130       0.0398216
   20      26      25    -0.0023310      -0.1271405
   20      26      29     0.0076791       0.0271717
   20      27      24    -0.0026757      -0.1178547
   20      27      31     0.0073944       0.0084528
   20      28      24     0.0024703       0.0520301
   20      28      33    -0.0036423      -0.0161527
   20      29      25     0.0023616       0.0568875
   20      29      36    -0.0039067      -0.0161039
   20      30      27     0.0025958       0.0560579
   20      30      30     0.0026492       0.0478428
   21      22      24     0.0036823       0.2382484
   21      22      25     0.0039352       0.1617442
   21      22      26     0.0687583       0.1223056
   21      22      28    -0.0401926      -0.0710999
   21      22      29    -0.0038640      -0.0535713
   21      22      31    -0.0034981      -0.0680729
   21      22      35    -0.0492302      -0.0885195
   21      22      37    -0.0031295      -0.0800302
   21      22      56    -0.0027008      -0.3553123
   21      22      57     0.0188092       0.0649447
   21      23      24     0.0037214       0.2847533
   21      23      26    -0.0633446      -0.3706603
   21      23      27     0.9822163       0.8078680
   21      23      28     0.7733317       0.4083689
   21      23      29     0.0061428       0.1339510
   21      23      32     0.0042609       0.3144821
   21      23      33     0.0061413       0.1840379
   21      23      35    -0.0492302      -0.3584436
   21      23      37    -0.0031295      -0.4177166
   21      24      25     0.0039352       0.1730894
   21      24      26     0.0687583       0.0768679
   21      24      28    -0.0664366      -0.0416638
   21      24      31    -0.0034981      -0.0663376
   21      24      32     0.0041008       0.2356139
   21      24      33    -0.0030548      -0.0553752
   21      24      35    -0.0492302      -0.0395895
   21      24      37    -0.0031295      -0.0555794
   21      25      26    -0.0526082      -0.0808582
   21      25      27     0.0038182       0.2266141
   21      25      28     0.0676422       0.1155283
   21      25      29    -0.0032879      -0.0645701
   21      25      31    -0.0029781      -0.0668189
   21      25      32     0.0042609       0.2177230
   21      25      33     0.0056409       0.2963856
   21      25      35    -0.0492302      -0.0714775
   21      25      37    -0.0031295      -0.0718517
   21      25      57    -0.0127130      -0.0577125
   21      26      25    -0.0023310      -0.4866994
   21      26      29     0.7585127       0.8085585
   21      26      32    -0.0028290      -0.5137806
   21      27      24     0.0026757       0.0086434
   21      27      31     0.0034981       0.0058119
   21      28      24    -0.0024703      -0.1175463
   21      28      33     0.0061413       0.0503530
   21      29      25     0.0023616       0.0549718
   21      29      32     0.0028762       0.0726377
   21      30      27     0.0025958       0.0638881
   21      30      37     0.0031295       0.0008677
   22      23      24     0.0036823       0.2155061
   22      23      26    -0.0633446      -0.0440271
   22      23      28    -0.0401926      -0.0389723
   22      23      29    -0.0038640      -0.0633817
   22      23      34     0.0039910       0.2283231
   22      23      35     0.0621621       0.0785229
   22      23      36    -0.0031715      -0.0589544
   22      23      37    -0.0034279      -0.0676173
   22      24      25     0.0042417       0.2664572
   22      24      26     0.1528516       0.4238239
   22      24      28     0.0401926       0.3268553
   22      24      30     0.9763711       0.8038893
   22      24      31     0.0055938       0.1785973
   22      24      34     0.0041349       0.3176240
   22      24      35     0.0621621       0.4347109
   22      24      36     0.0059498       0.1758719
   22      24      37    -0.0034279      -0.4436536
   22      25      26    -0.0526082      -0.0694174
   22      25      28    -0.0401926      -0.0836040
   22      25      29    -0.0032879      -0.0559174
   22      25      30     0.0038148       0.2396389
   22      25      31    -0.0029781      -0.0631573
   22      25      34     0.0041349       0.2302868
   22      25      35     0.0621621       0.1197116
   22      25      36     0.0058725       0.3037209
   22      25      37    -0.0034279      -0.0781718
   22      25      57    -0.0127130      -0.0579053
   22      26      25    -0.0023310      -0.0009857
   22      26      29     0.0038640       0.0070326
   22      27      24    -0.0026757      -0.5352561
   22      27      31     0.7714423       0.8111927
   22      27      34    -0.0027514      -0.5033856
   22      28      24     0.0024703       0.0559770
   22      28      34     0.0027344       0.0704687
   22      29      25    -0.0023616      -0.1237000
   22      29      36     0.0059498       0.0454419
   22      30      30     0.0026492       0.0662072
   22      30      37     0.0034279       0.0002683
   23      24      26    -0.0633446      -0.0897231
   23      24      28    -0.0664366      -0.0795396
   23      24      32     0.0041008       0.2371893
   23      24      33    -0.0030548      -0.0745999
   23      24      34     0.0039910       0.2344295
   23      24      35     0.1467861       0.1155847
   23      24      36    -0.0031715      -0.0765970
   23      24      37     0.0058393       0.2833096
   23      25      26     0.0526082       0.3287773
   23      25      27     0.0038182       0.3324660
   23      25      28     0.0676422       0.4302442
   23      25      29    -0.0032879      -0.4295871
   23      25      32     0.9908109       0.8060544
   23      25      33     0.0056409       0.1626191
   23      25      34     0.0039910       0.3266595
   23      25      35     0.1467861       0.4196368
   23      25      36    -0.0031715      -0.4318419
   23      25      37     0.0058393       0.1411173
   23      26      29     0.0061428       0.0265143
   23      26      32    -0.0028290      -0.1144616
   23      27      24     0.0026757       0.0178204
   23      27      34     0.0027514       0.0229053
   23      28      24    -0.0024703      -0.5693017
   23      28      33     0.7725252       0.8108022
   23      28      34    -0.0027344      -0.5712162
   23      29      32     0.0028762       0.0679299
   23      29      36    -0.0031715      -0.0045782
   23      30      27    -0.0025958      -0.1165228
   23      30      37     0.0058393       0.0175819
   24      25      26    -0.0526082      -0.3490392
   24      25      28    -0.0664366      -0.3754148
   24      25      30     0.0038148       0.3357779
   24      25      31    -0.0029781      -0.3992470
   24      25      32     0.0041008       0.3359503
   24      25      33    -0.0030548      -0.4228855
   24      25      34     0.9885727       0.8067434
   24      25      35     0.7682722       0.4078358
   24      25      36     0.0058725       0.1584343
   24      25      37     0.0063456       0.1494448
   24      26      25     0.0023310       0.0089078
   24      26      32     0.0028290       0.0231963
   24      27      31     0.0055938       0.0661496
   24      27      34    -0.0027514      -0.1150345
   24      28      33    -0.0030548      -0.0026038
   24      28      34     0.0027344       0.0668367
   24      29      25    -0.0023616      -0.5419393
   24      29      32    -0.0028762      -0.5746523
   24      29      36     0.7738494       0.8099779
   24      30      30    -0.0026492      -0.1178218
   24      30      37     0.0063456       0.0257313
   25      26      29     0.0032879       0.0040229
   25      26      32     0.0028290       0.0102125
   25      27      31     0.0029781       0.0061290
   25      27      34     0.0027514       0.0110800
   25      28      33     0.0056409       0.0274371
   25      28      34    -0.0027344      -0.1134008
   25      29      32    -0.0028762      -0.1142995
   25      29      36     0.0058725       0.0241295
   25      30      27    -0.0025958      -0.5723934
   25      30      30    -0.0026492      -0.5715982
   25      30      37     0.7722054       0.8113485
   26      29      25    -0.0023310      -0.0010696
   26      29      32    -0.0028290      -0.0006129
   27      28      24    -0.0024703      -0.0004818
   27      28      34    -0.0027344      -0.0005516


 Atom-Atom Net Linear NLMO/NPA Bond Orders:                                    

     Atom    1       2       3       4       5       6       7       8       9
     ---- ------  ------  ------  ------  ------  ------  ------  ------  ------
   1.  C  0.0000  0.7772  0.7742  1.0022 -0.0012  0.0005  0.6939 -0.0153  0.0199
   2.  H  0.7772  0.0000  0.0003  0.0063 -0.0010 -0.0030 -0.0127  0.0025  0.0027
   3.  H  0.7742  0.0003  0.0000 -0.0064  0.0001  0.0015 -0.0152 -0.0046 -0.0068
   4.  C  1.0022  0.0063 -0.0064  0.0000  0.7669  0.7862 -0.0170  0.6916 -0.0127
   5.  H -0.0012 -0.0010  0.0001  0.7669  0.0000 -0.0031 -0.0012 -0.0119  0.0013
   6.  H  0.0005 -0.0030  0.0015  0.7862 -0.0031  0.0000  0.0026 -0.0167 -0.0009
   7.  O  0.6939 -0.0127 -0.0152 -0.0170 -0.0012  0.0026  0.0000  0.0078  0.7380
   8.  O -0.0153  0.0025 -0.0046  0.6916 -0.0119 -0.0167  0.0078  0.0000  0.0024
   9.  C  0.0199  0.0027 -0.0068 -0.0127  0.0013 -0.0009  0.7380  0.0024  0.0000
  10.  C -0.0255  0.0001  0.0106  0.0085 -0.0013  0.0020 -0.0381 -0.0004  1.5537
  11.  C -0.0051 -0.0023  0.0009  0.0132  0.0010  0.0009 -0.0332 -0.0011  1.2311
  12.  C -0.0013 -0.0011  0.0001  0.0015  0.0000  0.0006  0.0057 -0.0004  0.0366
  13.  C -0.0072 -0.0024  0.0011  0.0003 -0.0004  0.0014  0.0096 -0.0006  0.0219
  14.  C  0.0127  0.0048 -0.0056 -0.0103  0.0000 -0.0013  0.0229  0.0002 -0.0306
  15.  H -0.0050  0.0012  0.0017  0.0004  0.0001  0.0012  0.0008 -0.0011  0.0031
  16.  H  0.0002 -0.0001  0.0006  0.0002 -0.0002  0.0001 -0.0013  0.0000  0.0036
  17.  H  0.0017  0.0000  0.0009 -0.0003 -0.0003 -0.0001 -0.0005  0.0001  0.0010
  18.  H -0.0026  0.0001 -0.0002  0.0001  0.0002 -0.0003 -0.0023 -0.0001  0.0013
  19.  H  0.0006  0.0001  0.0002 -0.0001 -0.0001  0.0000  0.0057  0.0000  0.0072
  20.  C -0.0127 -0.0014  0.0045  0.0188  0.0075 -0.0105 -0.0014  0.7467  0.0010
  21.  C  0.0122  0.0006 -0.0003 -0.0051  0.0022 -0.0072  0.0006 -0.0342  0.0000
  22.  C  0.0070  0.0011  0.0003 -0.0273  0.0018  0.0032 -0.0002 -0.0403  0.0009
  23.  C  0.0025  0.0011 -0.0012 -0.0081 -0.0006 -0.0001  0.0002  0.0093 -0.0009
  24.  C  0.0005  0.0006  0.0003  0.0002 -0.0007 -0.0008  0.0000  0.0057  0.0000
  25.  C -0.0090 -0.0008 -0.0009  0.0104 -0.0012  0.0102 -0.0003  0.0230 -0.0008
  26.  H  0.0000 -0.0001  0.0000  0.0011  0.0008 -0.0002 -0.0001 -0.0002  0.0000
  27.  H -0.0018  0.0003  0.0008 -0.0051  0.0010 -0.0013 -0.0004  0.0006  0.0011
  28.  H -0.0002 -0.0002  0.0002 -0.0030  0.0002 -0.0001  0.0000 -0.0022  0.0002
  29.  H  0.0002  0.0000 -0.0002  0.0017 -0.0002 -0.0001  0.0002 -0.0010 -0.0004
  30.  H  0.0003 -0.0001 -0.0002  0.0006 -0.0003  0.0001  0.0000  0.0056 -0.0001

     Atom   10      11      12      13      14      15      16      17      18
     ---- ------  ------  ------  ------  ------  ------  ------  ------  ------
   1.  C -0.0255 -0.0051 -0.0013 -0.0072  0.0127 -0.0050  0.0002  0.0017 -0.0026
   2.  H  0.0001 -0.0023 -0.0011 -0.0024  0.0048  0.0012 -0.0001  0.0000  0.0001
   3.  H  0.0106  0.0009  0.0001  0.0011 -0.0056  0.0017  0.0006  0.0009 -0.0002
   4.  C  0.0085  0.0132  0.0015  0.0003 -0.0103  0.0004  0.0002 -0.0003  0.0001
   5.  H -0.0013  0.0010  0.0000 -0.0004  0.0000  0.0001 -0.0002 -0.0003  0.0002
   6.  H  0.0020  0.0009  0.0006  0.0014 -0.0013  0.0012  0.0001 -0.0001 -0.0003
   7.  O -0.0381 -0.0332  0.0057  0.0096  0.0229  0.0008 -0.0013 -0.0005 -0.0023
   8.  O -0.0004 -0.0011 -0.0004 -0.0006  0.0002 -0.0011  0.0000  0.0001 -0.0001
   9.  C  1.5537  1.2311  0.0366  0.0219 -0.0306  0.0031  0.0036  0.0010  0.0013
  10.  C  0.0000 -0.0044  1.2515 -0.0452 -0.0383  0.7547  0.0072  0.0022  0.0067
  11.  C -0.0044  0.0000 -0.0472  1.6512 -0.0475  0.0088  0.7599  0.0068  0.0025
  12.  C  1.2515 -0.0472  0.0000  0.0232  1.6432  0.0014  0.0068  0.7676  0.0015
  13.  C -0.0452  1.6512  0.0232  0.0000  1.2694  0.0063  0.0023  0.0010  0.7687
  14.  C -0.0383 -0.0475  1.6432  1.2694  0.0000  0.0078  0.0074  0.0010  0.0011
  15.  H  0.7547  0.0088  0.0014  0.0063  0.0078  0.0000 -0.0008 -0.0017 -0.0048
  16.  H  0.0072  0.7599  0.0068  0.0023  0.0074 -0.0008  0.0000  0.0064 -0.0034
  17.  H  0.0022  0.0068  0.7676  0.0010  0.0010 -0.0017  0.0064  0.0000 -0.0028
  18.  H  0.0067  0.0025  0.0015  0.7687  0.0011 -0.0048 -0.0034 -0.0028  0.0000
  19.  H  0.0013  0.0073  0.0028  0.0025  0.7680  0.0014 -0.0027 -0.0032 -0.0034
  20.  C  0.0019 -0.0003 -0.0001  0.0002  0.0007  0.0010  0.0002 -0.0003  0.0002
  21.  C  0.0011  0.0006 -0.0007  0.0006  0.0001  0.0006  0.0002 -0.0001  0.0001
  22.  C  0.0014 -0.0007 -0.0007  0.0002  0.0000 -0.0006  0.0000 -0.0001  0.0000
  23.  C -0.0009  0.0003 -0.0005  0.0002 -0.0001 -0.0010  0.0001  0.0000  0.0001
  24.  C  0.0013  0.0001 -0.0005 -0.0001 -0.0001  0.0005  0.0000 -0.0001 -0.0001
  25.  C -0.0005 -0.0001  0.0000  0.0002  0.0002 -0.0008  0.0001  0.0002  0.0000
  26.  H -0.0002  0.0001  0.0000  0.0001 -0.0001  0.0001  0.0000  0.0000  0.0000
  27.  H  0.0008  0.0003  0.0000  0.0002 -0.0001  0.0002 -0.0001 -0.0001  0.0000
  28.  H -0.0001  0.0000  0.0000 -0.0001  0.0000  0.0000  0.0000  0.0000  0.0000
  29.  H -0.0001 -0.0001 -0.0001 -0.0001  0.0000 -0.0002  0.0000  0.0000  0.0000
  30.  H  0.0003  0.0000  0.0001 -0.0001  0.0000 -0.0001  0.0000  0.0000  0.0000

     Atom   19      20      21      22      23      24      25      26      27
     ---- ------  ------  ------  ------  ------  ------  ------  ------  ------
   1.  C  0.0006 -0.0127  0.0122  0.0070  0.0025  0.0005 -0.0090  0.0000 -0.0018
   2.  H  0.0001 -0.0014  0.0006  0.0011  0.0011  0.0006 -0.0008 -0.0001  0.0003
   3.  H  0.0002  0.0045 -0.0003  0.0003 -0.0012  0.0003 -0.0009  0.0000  0.0008
   4.  C -0.0001  0.0188 -0.0051 -0.0273 -0.0081  0.0002  0.0104  0.0011 -0.0051
   5.  H -0.0001  0.0075  0.0022  0.0018 -0.0006 -0.0007 -0.0012  0.0008  0.0010
   6.  H  0.0000 -0.0105 -0.0072  0.0032 -0.0001 -0.0008  0.0102 -0.0002 -0.0013
   7.  O  0.0057 -0.0014  0.0006 -0.0002  0.0002  0.0000 -0.0003 -0.0001 -0.0004
   8.  O  0.0000  0.7467 -0.0342 -0.0403  0.0093  0.0057  0.0230 -0.0002  0.0006
   9.  C  0.0072  0.0010  0.0000  0.0009 -0.0009  0.0000 -0.0008  0.0000  0.0011
  10.  C  0.0013  0.0019  0.0011  0.0014 -0.0009  0.0013 -0.0005 -0.0002  0.0008
  11.  C  0.0073 -0.0003  0.0006 -0.0007  0.0003  0.0001 -0.0001  0.0001  0.0003
  12.  C  0.0028 -0.0001 -0.0007 -0.0007 -0.0005 -0.0005  0.0000  0.0000  0.0000
  13.  C  0.0025  0.0002  0.0006  0.0002  0.0002 -0.0001  0.0002  0.0001  0.0002
  14.  C  0.7680  0.0007  0.0001  0.0000 -0.0001 -0.0001  0.0002 -0.0001 -0.0001
  15.  H  0.0014  0.0010  0.0006 -0.0006 -0.0010  0.0005 -0.0008  0.0001  0.0002
  16.  H -0.0027  0.0002  0.0002  0.0000  0.0001  0.0000  0.0001  0.0000 -0.0001
  17.  H -0.0032 -0.0003 -0.0001 -0.0001  0.0000 -0.0001  0.0002  0.0000 -0.0001
  18.  H -0.0034  0.0002  0.0001  0.0000  0.0001 -0.0001  0.0000  0.0000  0.0000
  19.  H  0.0000  0.0000  0.0001  0.0002  0.0001  0.0000  0.0001  0.0000  0.0000
  20.  C  0.0000  0.0000  1.2300  1.5562  0.0272  0.0273 -0.0298  0.0039  0.0032
  21.  C  0.0001  1.2300  0.0000 -0.0071  1.6590 -0.0493 -0.0434  0.7522  0.0087
  22.  C  0.0002  1.5562 -0.0071  0.0000 -0.0431  1.2456 -0.0403  0.0035  0.7642
  23.  C  0.0001  0.0272  1.6590 -0.0431  0.0000  0.0243  1.2678  0.0029  0.0063
  24.  C  0.0000  0.0273 -0.0493  1.2456  0.0243  0.0000  1.6505  0.0070  0.0024
  25.  C  0.0001 -0.0298 -0.0434 -0.0403  1.2678  1.6505  0.0000  0.0091  0.0081
  26.  H  0.0000  0.0039  0.7522  0.0035  0.0029  0.0070  0.0091  0.0000 -0.0001
  27.  H  0.0000  0.0032  0.0087  0.7642  0.0063  0.0024  0.0081 -0.0001  0.0000
  28.  H  0.0000  0.0013  0.0025  0.0068  0.7659  0.0014  0.0010 -0.0029 -0.0056
  29.  H  0.0000  0.0010  0.0069  0.0026  0.0012  0.7671  0.0011 -0.0059 -0.0039
  30.  H  0.0000  0.0073  0.0073  0.0078  0.0025  0.0029  0.7656  0.0013  0.0012

     Atom   28      29      30
     ---- ------  ------  ------
   1.  C -0.0002  0.0002  0.0003
   2.  H -0.0002  0.0000 -0.0001
   3.  H  0.0002 -0.0002 -0.0002
   4.  C -0.0030  0.0017  0.0006
   5.  H  0.0002 -0.0002 -0.0003
   6.  H -0.0001 -0.0001  0.0001
   7.  O  0.0000  0.0002  0.0000
   8.  O -0.0022 -0.0010  0.0056
   9.  C  0.0002 -0.0004 -0.0001
  10.  C -0.0001 -0.0001  0.0003
  11.  C  0.0000 -0.0001  0.0000
  12.  C  0.0000 -0.0001  0.0001
  13.  C -0.0001 -0.0001 -0.0001
  14.  C  0.0000  0.0000  0.0000
  15.  H  0.0000 -0.0002 -0.0001
  16.  H  0.0000  0.0000  0.0000
  17.  H  0.0000  0.0000  0.0000
  18.  H  0.0000  0.0000  0.0000
  19.  H  0.0000  0.0000  0.0000
  20.  C  0.0013  0.0010  0.0073
  21.  C  0.0025  0.0069  0.0073
  22.  C  0.0068  0.0026  0.0078
  23.  C  0.7659  0.0012  0.0025
  24.  C  0.0014  0.7671  0.0029
  25.  C  0.0010  0.0011  0.7656
  26.  H -0.0029 -0.0059  0.0013
  27.  H -0.0056 -0.0039  0.0012
  28.  H  0.0000 -0.0028 -0.0034
  29.  H -0.0028  0.0000 -0.0032
  30.  H -0.0034 -0.0032  0.0000


 Linear NLMO/NPA Bond Orders, Totals by Atom:                                  

     Atom    1
     ---- ------
   1.  C  3.2188
   2.  H  0.7739
   3.  H  0.7569
   4.  C  3.2151
   5.  H  0.7596
   6.  H  0.7648
   7.  O  1.3641
   8.  O  1.3657
   9.  C  3.5740
  10.  C  3.4507
  11.  C  3.5430
  12.  C  3.6899
  13.  C  3.7046
  14.  C  3.6054
  15.  H  0.7753
  16.  H  0.7867
  17.  H  0.7794
  18.  H  0.7625
  19.  H  0.7880
  20.  C  3.5833
  21.  C  3.5382
  22.  C  3.4425
  23.  C  3.7142
  24.  C  3.6859
  25.  C  3.6199
  26.  H  0.7724
  27.  H  0.7811
  28.  H  0.7589
  29.  H  0.7636
  30.  H  0.7956
 Leave Link  607 at Fri May 17 10:26:53 2024, MaxMem=  6291456000 cpu:       683.6
 Internal input file was deleted!
 Error termination via Lnk1e at Fri May 17 10:26:53 2024.
May-2024\0\\#P PB
 E1PBE/GEN pop=nboread\\c2h\\0,1\C,0,0.759874,2.090698,-0.631382\H,0,1.
 056021,3.026419,-1.115232\H,0,0.360978,1.431169,-1.40577\C,0,-0.279693
 ,2.424745,0.417885\H,0,0.204457,2.980969,1.222173\H,0,-1.054159,3.0678
 35,-0.017052\O,0,1.935565,1.563132,-0.061947\O,0,-0.847604,1.297228,1.
 044642\C,0,2.140172,0.221227,-0.005462\C,0,1.23356,-0.747498,-0.418822
 \C,0,3.375246,-0.165932,0.510189\C,0,1.573558,-2.090077,-0.315222\C,0,
 3.697875,-1.505918,0.609415\C,0,2.799185,-2.481112,0.195136\H,0,0.2561
 73,-0.485601,-0.798606\H,0,4.067099,0.605165,0.827171\H,0,0.853781,-2.
 835214,-0.634845\H,0,4.662603,-1.79114,1.013615\H,0,3.052114,-3.531337
 ,0.274067\C,0,-1.78201,0.571678,0.385209\C,0,-2.19028,-0.599086,1.0219
 14\C,0,-2.332554,0.913004,-0.846108\C,0,-3.140633,-1.411615,0.436134\C
 ,0,-3.288379,0.084256,-1.422921\C,0,-3.698109,-1.076853,-0.792977\H,0,
 -1.738544,-0.850949,1.973526\H,0,-2.03108,1.81195,-1.366621\H,0,-3.447
 985,-2.319385,0.94275\H,0,-3.711138,0.359578,-2.382512\H,0,-4.440875,-
 1.717447,-1.252156\\Version=EM64L-G09RevD.01\State=1-A\HF=-691.7913477
 \RMSD=9.443e-09\Dipole=-0.4089525,0.3983206,-0.4224163\Quadrupole=-2.6
 585281,5.1699413,-2.5114132,1.028623,3.6714852,-2.7183883\PG=C01 [X(C1
 4H14O2)]\\@


 NATURE REVEALS EVERY SECRET ONCE.
                    - RALPH WALDO EMERSON
 Job cpu time:       0 days  2 hours 47 minutes 40.7 seconds.
 File lengths (MBytes):  RWF=    259 Int=      0 D2E=      0 Chk=     18 Scr=      1
 Normal termination of Gaussian 09 at Fri May 17 10:26:46 2024.
