 Entering Gaussian System, Link 0=/home/madghost/g09/g09
 Input=job34.gjf
 Output=job34.log
 Initial command:
 /home/madghost/g09/l1.exe "/scr/natalya/job34/Gau-711939.inp" -scrdir="/scr/natalya/job34/"
 Entering Link 1 = /home/madghost/g09/l1.exe PID=    711941.
  
 Copyright (c) 1988,1990,1992,1993,1995,1998,2003,2009,2013,
            Gaussian, Inc.  All Rights Reserved.
  
 This is part of the Gaussian(R) 09 program.  It is based on
 the Gaussian(R) 03 system (copyright 2003, Gaussian, Inc.),
 the Gaussian(R) 98 system (copyright 1998, Gaussian, Inc.),
 the Gaussian(R) 94 system (copyright 1995, Gaussian, Inc.),
 the Gaussian 92(TM) system (copyright 1992, Gaussian, Inc.),
 the Gaussian 90(TM) system (copyright 1990, Gaussian, Inc.),
 the Gaussian 88(TM) system (copyright 1988, Gaussian, Inc.),
 the Gaussian 86(TM) system (copyright 1986, Carnegie Mellon
 University), and the Gaussian 82(TM) system (copyright 1983,
 Carnegie Mellon University). Gaussian is a federally registered
 trademark of Gaussian, Inc.
  
 This software contains proprietary and confidential information,
 including trade secrets, belonging to Gaussian, Inc.
  
 This software is provided under written license and may be
 used, copied, transmitted, or stored only in accord with that
 written license.
  
 The following legend is applicable only to US Government
 contracts under FAR:
  
                    RESTRICTED RIGHTS LEGEND
  
 Use, reproduction and disclosure by the US Government is
 subject to restrictions as set forth in subparagraphs (a)
 and (c) of the Commercial Computer Software - Restricted
 Rights clause in FAR 52.227-19.
  
 Gaussian, Inc.
 340 Quinnipiac St., Bldg. 40, Wallingford CT 06492
  
  
 ---------------------------------------------------------------
 Warning -- This program may not be used in any manner that
 competes with the business of Gaussian, Inc. or will provide
 assistance to any competitor of Gaussian, Inc.  The licensee
 of this program is prohibited from giving any competitor of
 Gaussian, Inc. access to this program.  By using this program,
 the user acknowledges that Gaussian, Inc. is engaged in the
 business of creating and licensing software in the field of
 computational chemistry and represents and warrants to the
 licensee that it is not a competitor of Gaussian, Inc. and that
 it will not use this program in any manner prohibited above.
 ---------------------------------------------------------------
  

 Cite this work as:
 Gaussian 09, Revision D.01,
 M. J. Frisch, G. W. Trucks, H. B. Schlegel, G. E. Scuseria, 
 M. A. Robb, J. R. Cheeseman, G. Scalmani, V. Barone, B. Mennucci, 
 G. A. Petersson, H. Nakatsuji, M. Caricato, X. Li, H. P. Hratchian, 
 A. F. Izmaylov, J. Bloino, G. Zheng, J. L. Sonnenberg, M. Hada, 
 M. Ehara, K. Toyota, R. Fukuda, J. Hasegawa, M. Ishida, T. Nakajima, 
 Y. Honda, O. Kitao, H. Nakai, T. Vreven, J. A. Montgomery, Jr., 
 J. E. Peralta, F. Ogliaro, M. Bearpark, J. J. Heyd, E. Brothers, 
 K. N. Kudin, V. N. Staroverov, T. Keith, R. Kobayashi, J. Normand, 
 K. Raghavachari, A. Rendell, J. C. Burant, S. S. Iyengar, J. Tomasi, 
 M. Cossi, N. Rega, J. M. Millam, M. Klene, J. E. Knox, J. B. Cross, 
 V. Bakken, C. Adamo, J. Jaramillo, R. Gomperts, R. E. Stratmann, 
 O. Yazyev, A. J. Austin, R. Cammi, C. Pomelli, J. W. Ochterski, 
 R. L. Martin, K. Morokuma, V. G. Zakrzewski, G. A. Voth, 
 P. Salvador, J. J. Dannenberg, S. Dapprich, A. D. Daniels, 
 O. Farkas, J. B. Foresman, J. V. Ortiz, J. Cioslowski, 
 and D. J. Fox, Gaussian, Inc., Wallingford CT, 2013.
 
 ******************************************
 Gaussian 09:  EM64L-G09RevD.01 24-Apr-2013
                17-May-2024 
 ******************************************
 %chk=job34
 %nproc=24
 Will use up to   24 processors via shared memory.
 %mem=48000mb
 --------------------------
 #P PBE1PBE/GEN pop=nboread
 --------------------------
 1/38=1/1;
 2/12=2,17=6,18=5,40=1/2;
 3/5=7,11=2,16=1,25=1,30=1,74=-13/1,2,3;
 4//1;
 5/5=2,38=5/2;
 6/7=2,8=2,9=2,10=2,28=1,40=2/1,7;
 99/5=1,9=1/99;
 Leave Link    1 at Fri May 17 10:19:35 2024, MaxMem=  6291456000 cpu:         1.2
 (Enter /home/madghost/g09/l101.exe)
 ---
 c2h
 ---
 Symbolic Z-matrix:
 Charge =  0 Multiplicity = 1
 6                    -0.29339   0.63397  -0.30051 
 1                     0.50139   1.35592  -0.51238 
 1                    -0.9829    1.10309   0.40239 
 6                     0.29339  -0.63397   0.30051 
 1                    -0.50139  -1.35592   0.51238 
 1                     0.9829   -1.10309  -0.40239 
 8                    -1.05633   0.3456   -1.44954 
 8                     1.05633  -0.3456    1.44954 
 6                    -0.42381   0.14379  -2.63407 
 6                     0.94885   0.25133  -2.83038 
 6                    -1.25084  -0.18069  -3.70707 
 6                     1.47767   0.03633  -4.09719 
 6                    -0.7097   -0.39267  -4.96037 
 6                     0.66055  -0.28582  -5.16625 
 1                     1.61554   0.49811  -2.01494 
 1                    -2.31722  -0.25757  -3.53224 
 1                     2.549     0.12219  -4.23934 
 1                    -1.36548  -0.64349  -5.78635 
 1                     1.08328  -0.4534   -6.14916 
 6                     0.42381  -0.14379   2.63407 
 6                    -0.94885  -0.25133   2.83038 
 6                     1.25084   0.18069   3.70707 
 6                    -1.47767  -0.03633   4.09719 
 6                     0.7097    0.39267   4.96037 
 6                    -0.66055   0.28582   5.16625 
 1                    -1.61554  -0.49811   2.01494 
 1                     2.31722   0.25757   3.53224 
 1                    -2.549    -0.12219   4.23934 
 1                     1.36548   0.64349   5.78635 
 1                    -1.08328   0.4534    6.14916 
 
 NAtoms=     30 NQM=       30 NQMF=       0 NMMI=      0 NMMIF=      0
                NMic=       0 NMicF=      0.
                    Isotopes and Nuclear Properties:
 (Nuclear quadrupole moments (NQMom) in fm**2, nuclear magnetic moments (NMagM)
  in nuclear magnetons)

  Atom         1           2           3           4           5           6           7           8           9          10
 IAtWgt=          12           1           1          12           1           1          16          16          12          12
 AtmWgt=  12.0000000   1.0078250   1.0078250  12.0000000   1.0078250   1.0078250  15.9949146  15.9949146  12.0000000  12.0000000
 NucSpn=           0           1           1           0           1           1           0           0           0           0
 AtZEff=   0.0000000   0.0000000   0.0000000   0.0000000   0.0000000   0.0000000   0.0000000   0.0000000   0.0000000   0.0000000
 NQMom=    0.0000000   0.0000000   0.0000000   0.0000000   0.0000000   0.0000000   0.0000000   0.0000000   0.0000000   0.0000000
 NMagM=    0.0000000   2.7928460   2.7928460   0.0000000   2.7928460   2.7928460   0.0000000   0.0000000   0.0000000   0.0000000
 AtZNuc=   6.0000000   1.0000000   1.0000000   6.0000000   1.0000000   1.0000000   8.0000000   8.0000000   6.0000000   6.0000000

  Atom        11          12          13          14          15          16          17          18          19          20
 IAtWgt=          12          12          12          12           1           1           1           1           1          12
 AtmWgt=  12.0000000  12.0000000  12.0000000  12.0000000   1.0078250   1.0078250   1.0078250   1.0078250   1.0078250  12.0000000
 NucSpn=           0           0           0           0           1           1           1           1           1           0
 AtZEff=   0.0000000   0.0000000   0.0000000   0.0000000   0.0000000   0.0000000   0.0000000   0.0000000   0.0000000   0.0000000
 NQMom=    0.0000000   0.0000000   0.0000000   0.0000000   0.0000000   0.0000000   0.0000000   0.0000000   0.0000000   0.0000000
 NMagM=    0.0000000   0.0000000   0.0000000   0.0000000   2.7928460   2.7928460   2.7928460   2.7928460   2.7928460   0.0000000
 AtZNuc=   6.0000000   6.0000000   6.0000000   6.0000000   1.0000000   1.0000000   1.0000000   1.0000000   1.0000000   6.0000000

  Atom        21          22          23          24          25          26          27          28          29          30
 IAtWgt=          12          12          12          12          12           1           1           1           1           1
 AtmWgt=  12.0000000  12.0000000  12.0000000  12.0000000  12.0000000   1.0078250   1.0078250   1.0078250   1.0078250   1.0078250
 NucSpn=           0           0           0           0           0           1           1           1           1           1
 AtZEff=   0.0000000   0.0000000   0.0000000   0.0000000   0.0000000   0.0000000   0.0000000   0.0000000   0.0000000   0.0000000
 NQMom=    0.0000000   0.0000000   0.0000000   0.0000000   0.0000000   0.0000000   0.0000000   0.0000000   0.0000000   0.0000000
 NMagM=    0.0000000   0.0000000   0.0000000   0.0000000   0.0000000   2.7928460   2.7928460   2.7928460   2.7928460   2.7928460
 AtZNuc=   6.0000000   6.0000000   6.0000000   6.0000000   6.0000000   1.0000000   1.0000000   1.0000000   1.0000000   1.0000000
 Leave Link  101 at Fri May 17 10:19:35 2024, MaxMem=  6291456000 cpu:         2.4
 (Enter /home/madghost/g09/l202.exe)
                          Input orientation:                          
 ---------------------------------------------------------------------
 Center     Atomic      Atomic             Coordinates (Angstroms)
 Number     Number       Type             X           Y           Z
 ---------------------------------------------------------------------
      1          6           0       -0.293388    0.633967   -0.300512
      2          1           0        0.501387    1.355919   -0.512380
      3          1           0       -0.982895    1.103087    0.402386
      4          6           0        0.293388   -0.633967    0.300512
      5          1           0       -0.501387   -1.355919    0.512380
      6          1           0        0.982895   -1.103087   -0.402386
      7          8           0       -1.056329    0.345601   -1.449537
      8          8           0        1.056329   -0.345601    1.449537
      9          6           0       -0.423813    0.143786   -2.634069
     10          6           0        0.948850    0.251332   -2.830378
     11          6           0       -1.250841   -0.180694   -3.707074
     12          6           0        1.477666    0.036330   -4.097189
     13          6           0       -0.709696   -0.392665   -4.960374
     14          6           0        0.660547   -0.285822   -5.166247
     15          1           0        1.615539    0.498108   -2.014941
     16          1           0       -2.317223   -0.257568   -3.532241
     17          1           0        2.548995    0.122190   -4.239339
     18          1           0       -1.365482   -0.643490   -5.786352
     19          1           0        1.083284   -0.453396   -6.149160
     20          6           0        0.423813   -0.143786    2.634069
     21          6           0       -0.948850   -0.251332    2.830378
     22          6           0        1.250841    0.180694    3.707074
     23          6           0       -1.477666   -0.036330    4.097189
     24          6           0        0.709696    0.392665    4.960374
     25          6           0       -0.660547    0.285822    5.166247
     26          1           0       -1.615539   -0.498108    2.014941
     27          1           0        2.317223    0.257568    3.532241
     28          1           0       -2.548995   -0.122190    4.239339
     29          1           0        1.365482    0.643490    5.786352
     30          1           0       -1.083284    0.453396    6.149160
 ---------------------------------------------------------------------
                    Distance matrix (angstroms):
                    1          2          3          4          5
     1  C    0.000000
     2  H    1.094427   0.000000
     3  H    1.090669   1.761764   0.000000
     4  C    1.520918   2.159561   2.157923   0.000000
     5  H    2.159561   3.067532   2.508119   1.094427   0.000000
     6  H    2.157923   2.508119   3.062547   1.090669   1.761764
     7  O    1.409075   2.079780   2.002198   2.417429   2.655607
     8  O    2.417429   2.655607   2.711763   1.409075   2.079780
     9  C    2.388049   2.612819   3.233093   3.119462   3.486441
    10  C    2.844255   2.606425   3.861073   3.319014   3.982521
    11  C    3.631123   3.954435   4.313647   4.318662   4.443718
    12  C    4.231850   3.942752   5.238178   4.603432   5.206067
    13  C    4.789739   4.930408   5.574146   5.361094   5.560781
    14  C    5.042954   4.937522   5.969895   5.490124   5.894235
    15  H    2.569383   2.057879   3.600185   2.896722   3.782346
    16  H    3.915969   4.434801   4.371853   4.652630   4.567559
    17  H    4.884201   4.427754   5.914560   5.125406   5.836820
    18  H    5.733735   5.941180   6.441846   6.308871   6.397518
    19  H    6.106084   5.948572   7.043755   6.500370   6.906652
    20  C    3.119462   3.486441   2.917864   2.388049   2.612819
    21  C    3.319014   3.982521   2.780424   2.844255   2.606425
    22  C    4.318662   4.443718   4.094063   3.631123   3.954435
    23  C    4.603432   5.206067   3.898030   4.231850   3.942752
    24  C    5.361094   5.560781   4.913738   4.789739   4.930408
    25  C    5.490124   5.894235   4.844193   5.042954   4.937522
    26  H    2.896722   3.782346   2.358898   2.569383   2.057879
    27  H    4.652630   4.567559   4.626194   3.915969   4.434801
    28  H    5.125406   5.836820   4.321595   4.884201   4.427754
    29  H    6.308871   6.397518   5.891790   5.733735   5.941180
    30  H    6.500370   6.906652   5.784253   6.106084   5.948572
                    6          7          8          9         10
     6  H    0.000000
     7  O    2.711763   0.000000
     8  O    2.002198   3.653179   0.000000
     9  C    2.917864   1.357911   4.371059   0.000000
    10  C    2.780424   2.436463   4.322679   1.390794   0.000000
    11  C    4.094063   2.326219   5.651625   1.393055   2.407049
    12  C    3.898030   3.677885   5.575802   2.401643   1.389490
    13  C    4.913738   3.604326   6.648911   2.404413   2.775318
    14  C    4.844193   4.142498   6.627882   2.787889   2.414112
    15  H    2.358898   2.735291   3.609317   2.160514   1.081809
    16  H    4.626194   2.508251   6.017202   2.133729   3.379175
    17  H    4.321595   4.564128   5.900016   3.378601   2.135957
    18  H    5.891790   4.458906   7.636229   3.382814   3.859355
    19  H    5.784253   5.225208   7.599509   3.870896   3.395442
    20  C    3.233093   4.371059   1.357911   5.343636   5.503814
    21  C    3.861073   4.322679   2.436463   5.503814   5.991502
    22  C    4.313647   5.651625   2.326219   6.558653   6.544805
    23  C    5.238178   5.575802   3.677885   6.815635   7.345877
    24  C    5.574146   6.648911   3.604326   7.682600   7.795703
    25  C    5.969895   6.627882   4.142498   7.805200   8.157044
    26  H    3.600185   3.609317   2.735291   4.842059   5.533070
    27  H    4.371853   6.017202   2.508251   6.749045   6.508103
    28  H    5.914560   5.900016   4.564128   7.199367   7.896540
    29  H    6.441846   7.636229   4.458906   8.622921   8.635705
    30  H    7.043755   7.599509   5.225208   8.813392   9.208827
                   11         12         13         14         15
    11  C    0.000000
    12  C    2.764786   0.000000
    13  C    1.381496   2.390330   0.000000
    14  C    2.406999   1.383601   1.389736   0.000000
    15  H    3.397090   2.137289   3.856912   3.384861   0.000000
    16  H    1.083350   3.847951   2.154520   3.396747   4.282507
    17  H    3.848870   1.084124   3.376986   2.142864   2.441434
    18  H    2.133242   3.376228   1.084070   2.148779   4.940979
    19  H    3.389143   2.146149   2.152133   1.083008   4.275561
    20  C    6.558653   6.815635   7.682600   7.805200   4.842059
    21  C    6.544805   7.345877   7.795703   8.157044   5.533070
    22  C    7.833173   7.808893   8.904892   8.905162   5.742405
    23  C    7.808893   8.711320   9.097043   9.510281   6.871075
    24  C    8.904892   9.097043  10.052495  10.149444   7.034678
    25  C    8.905162   9.510281  10.149444  10.432282   7.536252
    26  H    5.742405   6.871075   7.034678   7.536252   5.260443
    27  H    8.082749   7.678672   9.039334   8.871502   5.596557
    28  H    8.051963   9.259418   9.385675   9.939466   7.539505
    29  H    9.881779   9.902808  10.994185  11.014535   7.806653
    30  H    9.878031  10.569772  11.147965  11.472830   8.598732
                   16         17         18         19         20
    16  H    0.000000
    17  H    4.931965   0.000000
    18  H    2.477047   4.278159   0.000000
    19  H    4.295353   2.475283   2.482785   0.000000
    20  C    6.749045   7.199367   8.622921   8.813392   0.000000
    21  C    6.508103   7.896540   8.635705   9.208827   1.390794
    22  C    8.082749   8.051963   9.881779   9.878031   1.393055
    23  C    7.678672   9.259418   9.902808  10.569772   2.401643
    24  C    9.039334   9.385675  10.994185  11.147965   2.404413
    25  C    8.871502   9.939466  11.014535  11.472830   2.787889
    26  H    5.596557   7.539505   7.806653   8.598732   2.160514
    27  H    8.464654   7.776214  10.060338   9.785581   2.133729
    28  H    7.776214   9.896323  10.108755  11.010180   3.378601
    29  H   10.060338  10.108755  11.960015  11.989130   3.382814
    30  H    9.785581  11.010180  11.989130  12.520582   3.870896
                   21         22         23         24         25
    21  C    0.000000
    22  C    2.407049   0.000000
    23  C    1.389490   2.764786   0.000000
    24  C    2.775318   1.381496   2.390330   0.000000
    25  C    2.414112   2.406999   1.383601   1.389736   0.000000
    26  H    1.081809   3.397090   2.137289   3.856912   3.384861
    27  H    3.379175   1.083350   3.847951   2.154520   3.396747
    28  H    2.135957   3.848870   1.084124   3.376986   2.142864
    29  H    3.859355   2.133242   3.376228   1.084070   2.148779
    30  H    3.395442   3.389143   2.146149   2.152133   1.083008
                   26         27         28         29         30
    26  H    0.000000
    27  H    4.282507   0.000000
    28  H    2.441434   4.931965   0.000000
    29  H    4.940979   2.477047   4.278159   0.000000
    30  H    4.275561   4.295353   2.475283   2.482785   0.000000
 Stoichiometry    C14H14O2
 Framework group  CI[X(C14H14O2)]
 Deg. of freedom    42
 Full point group                 CI      NOp   2
 Largest Abelian subgroup         CI      NOp   2
 Largest concise Abelian subgroup CI      NOp   2
                         Standard orientation:                         
 ---------------------------------------------------------------------
 Center     Atomic      Atomic             Coordinates (Angstroms)
 Number     Number       Type             X           Y           Z
 ---------------------------------------------------------------------
      1          6           0       -0.293388    0.633967   -0.300512
      2          1           0        0.501387    1.355919   -0.512380
      3          1           0       -0.982895    1.103087    0.402386
      4          6           0        0.293388   -0.633967    0.300512
      5          1           0       -0.501387   -1.355919    0.512380
      6          1           0        0.982895   -1.103087   -0.402386
      7          8           0       -1.056329    0.345601   -1.449537
      8          8           0        1.056329   -0.345601    1.449537
      9          6           0       -0.423813    0.143786   -2.634069
     10          6           0        0.948850    0.251332   -2.830378
     11          6           0       -1.250841   -0.180694   -3.707074
     12          6           0        1.477666    0.036330   -4.097189
     13          6           0       -0.709696   -0.392665   -4.960374
     14          6           0        0.660547   -0.285822   -5.166247
     15          1           0        1.615539    0.498108   -2.014941
     16          1           0       -2.317223   -0.257568   -3.532241
     17          1           0        2.548995    0.122190   -4.239339
     18          1           0       -1.365482   -0.643490   -5.786352
     19          1           0        1.083284   -0.453396   -6.149160
     20          6           0        0.423813   -0.143786    2.634069
     21          6           0       -0.948850   -0.251332    2.830378
     22          6           0        1.250841    0.180694    3.707074
     23          6           0       -1.477666   -0.036330    4.097189
     24          6           0        0.709696    0.392665    4.960374
     25          6           0       -0.660547    0.285822    5.166247
     26          1           0       -1.615539   -0.498108    2.014941
     27          1           0        2.317223    0.257568    3.532241
     28          1           0       -2.548995   -0.122190    4.239339
     29          1           0        1.365482    0.643490    5.786352
     30          1           0       -1.083284    0.453396    6.149160
 ---------------------------------------------------------------------
 Rotational constants (GHZ):      2.0860085      0.1916898      0.1791234
 Leave Link  202 at Fri May 17 10:19:35 2024, MaxMem=  6291456000 cpu:         0.1
 (Enter /home/madghost/g09/l301.exe)
 General basis read from cards:  (5D, 7F)
 Centers:       2      3      5      6     15     16     17     18     19     26
 Centers:      27     28     29     30
 S 3 1.00
     Exponent=  3.4061341000D+01 Coefficients=  6.0251978000D-03
     Exponent=  5.1235746000D+00 Coefficients=  4.5021094000D-02
     Exponent=  1.1646626000D+00 Coefficients=  2.0189726000D-01
 S 1 1.00
     Exponent=  3.2723041000D-01 Coefficients=  1.0000000000D+00
 S 1 1.00
     Exponent=  1.0307241000D-01 Coefficients=  1.0000000000D+00
 P 1 1.00
     Exponent=  1.4070000000D+00 Coefficients=  1.0000000000D+00
 P 1 1.00
     Exponent=  3.8800000000D-01 Coefficients=  1.0000000000D+00
 D 1 1.00
     Exponent=  1.0570000000D+00 Coefficients=  1.0000000000D+00
 ****
 Centers:       1      4      9     10     11     12     13     14     20     21
 Centers:      22     23     24     25
 S 6 1.00
     Exponent=  1.3575349682D+04 Coefficients=  2.2245814352D-04
     Exponent=  2.0352333680D+03 Coefficients=  1.7232738252D-03
     Exponent=  4.6322562359D+02 Coefficients=  8.9255715314D-03
     Exponent=  1.3120019598D+02 Coefficients=  3.5727984502D-02
     Exponent=  4.2853015891D+01 Coefficients=  1.1076259931D-01
     Exponent=  1.5584185766D+01 Coefficients=  2.4295627626D-01
 S 2 1.00
     Exponent=  6.2067138508D+00 Coefficients=  4.1440263448D-01
     Exponent=  2.5764896527D+00 Coefficients=  2.3744968655D-01
 S 1 1.00
     Exponent=  5.7696339419D-01 Coefficients=  1.0000000000D+00
 S 1 1.00
     Exponent=  2.2972831358D-01 Coefficients=  1.0000000000D+00
 S 1 1.00
     Exponent=  9.5164440028D-02 Coefficients=  1.0000000000D+00
 P 4 1.00
     Exponent=  3.4697232244D+01 Coefficients=  5.3333657805D-03
     Exponent=  7.9582622826D+00 Coefficients=  3.5864109092D-02
     Exponent=  2.3780826883D+00 Coefficients=  1.4215873329D-01
     Exponent=  8.1433208183D-01 Coefficients=  3.4270471845D-01
 P 1 1.00
     Exponent=  2.8887547253D-01 Coefficients=  4.6445822433D-01
 P 1 1.00
     Exponent=  1.0056823671D-01 Coefficients=  2.4955789874D-01
 D 1 1.00
     Exponent=  1.0970000000D+00 Coefficients=  1.0000000000D+00
 D 1 1.00
     Exponent=  3.1800000000D-01 Coefficients=  1.0000000000D+00
 F 1 1.00
     Exponent=  7.6100000000D-01 Coefficients=  1.0000000000D+00
 ****
 Centers:       7      8
 S 6 1.00
     Exponent=  2.7032382631D+04 Coefficients=  2.1726302465D-04
     Exponent=  4.0523871392D+03 Coefficients=  1.6838662199D-03
     Exponent=  9.2232722710D+02 Coefficients=  8.7395616265D-03
     Exponent=  2.6124070989D+02 Coefficients=  3.5239968808D-02
     Exponent=  8.5354641351D+01 Coefficients=  1.1153519115D-01
     Exponent=  3.1035035245D+01 Coefficients=  2.5588953961D-01
 S 2 1.00
     Exponent=  1.2260860728D+01 Coefficients=  3.9768730901D-01
     Exponent=  4.9987076005D+00 Coefficients=  2.4627849430D-01
 S 1 1.00
     Exponent=  1.1703108158D+00 Coefficients=  1.0000000000D+00
 S 1 1.00
     Exponent=  4.6474740994D-01 Coefficients=  1.0000000000D+00
 S 1 1.00
     Exponent=  1.8504536357D-01 Coefficients=  1.0000000000D+00
 P 4 1.00
     Exponent=  6.3274954801D+01 Coefficients=  6.0685103418D-03
     Exponent=  1.4627049379D+01 Coefficients=  4.1912575824D-02
     Exponent=  4.4501223456D+00 Coefficients=  1.6153841088D-01
     Exponent=  1.5275799647D+00 Coefficients=  3.5706951311D-01
 P 1 1.00
     Exponent=  5.2935117943D-01 Coefficients=  4.4794207502D-01
 P 1 1.00
     Exponent=  1.7478421270D-01 Coefficients=  2.4446069663D-01
 D 1 1.00
     Exponent=  2.3140000000D+00 Coefficients=  1.0000000000D+00
 D 1 1.00
     Exponent=  6.4500000000D-01 Coefficients=  1.0000000000D+00
 F 1 1.00
     Exponent=  1.4280000000D+00 Coefficients=  1.0000000000D+00
 ****
 Ernie: Thresh=  0.10000D-02 Tol=  0.10000D-05 Strict=F.
 There are   393 symmetry adapted cartesian basis functions of AG  symmetry.
 There are   393 symmetry adapted cartesian basis functions of AU  symmetry.
 There are   346 symmetry adapted basis functions of AG  symmetry.
 There are   346 symmetry adapted basis functions of AU  symmetry.
   692 basis functions,  1054 primitive gaussians,   786 cartesian basis functions
    57 alpha electrons       57 beta electrons
       nuclear repulsion energy       988.6055112149 Hartrees.
 IExCor= 1009 DFT=T Ex+Corr=PBE1PBE ExCW=0 ScaHFX=  0.250000
 ScaDFX=  0.750000  0.750000  1.000000  1.000000 ScalE2=  1.000000  1.000000
 IRadAn=      0 IRanWt=     -1 IRanGd=            0 ICorTp=0 IEmpDi=  4
 NAtoms=   30 NActive=   30 NUniq=   15 SFac= 4.00D+00 NAtFMM=   60 NAOKFM=F Big=F
 Integral buffers will be    131072 words long.
 Raffenetti 2 integral format.
 Two-electron integral symmetry is turned on.
 Leave Link  301 at Fri May 17 10:19:35 2024, MaxMem=  6291456000 cpu:         2.8
 (Enter /home/madghost/g09/l302.exe)
 NPDir=0 NMtPBC=     1 NCelOv=     1 NCel=       1 NClECP=     1 NCelD=      1
         NCelK=      1 NCelE2=     1 NClLst=     1 CellRange=     0.0.
 One-electron integrals computed using PRISM.
 One-electron integral symmetry used in STVInt
 NBasis=   692 RedAO= T EigKep=  6.22D-06  NBF=   346   346
 NBsUse=   692 1.00D-06 EigRej= -1.00D+00 NBFU=   346   346
 Precomputing XC quadrature grid using
 IXCGrd= 4 IRadAn=           0 IRanWt=          -1 IRanGd=           0 AccXCQ= 0.00D+00.
 Generated NRdTot=       0 NPtTot=           0 NUsed=           0 NTot=          32
 NSgBfM=   761   761   763   763   763 MxSgAt=    30 MxSgA2=    30.
 Leave Link  302 at Fri May 17 10:19:37 2024, MaxMem=  6291456000 cpu:        28.8
 (Enter /home/madghost/g09/l303.exe)
 DipDrv:  MaxL=1.
 Leave Link  303 at Fri May 17 10:19:37 2024, MaxMem=  6291456000 cpu:         3.3
 (Enter /home/madghost/g09/l401.exe)
 ExpMin= 9.52D-02 ExpMax= 2.70D+04 ExpMxC= 9.22D+02 IAcc=2 IRadAn=         4 AccDes= 0.00D+00
 Harris functional with IExCor= 1009 and IRadAn=       4 diagonalized for initial guess.
 HarFok:  IExCor= 1009 AccDes= 0.00D+00 IRadAn=         4 IDoV= 1 UseB2=F ITyADJ=14
 ICtDFT=  3500011 ScaDFX=  1.000000  1.000000  1.000000  1.000000
 FoFCou: FMM=F IPFlag=           0 FMFlag=      100000 FMFlg1=           0
         NFxFlg=           0 DoJE=T BraDBF=F KetDBF=T FulRan=T
         wScrn=  0.000000 ICntrl=     500 IOpCl=  0 I1Cent=   200000004 NGrid=           0
         NMat0=    1 NMatS0=      1 NMatT0=    0 NMatD0=    1 NMtDS0=    0 NMtDT0=    0
 Petite list used in FoFCou.
 Harris En= -692.028663630676    
 JPrj=0 DoOrth=F DoCkMO=F.
 Initial guess orbital symmetries:
       Occupied  (AU) (AG) (AU) (AG) (AU) (AG) (AU) (AG) (AU) (AG)
                 (AU) (AG) (AG) (AU) (AU) (AG) (AG) (AU) (AG) (AU)
                 (AG) (AU) (AG) (AU) (AG) (AU) (AU) (AG) (AG) (AU)
                 (AU) (AG) (AU) (AG) (AU) (AG) (AU) (AG) (AU) (AG)
                 (AG) (AU) (AG) (AU) (AU) (AG) (AG) (AU) (AG) (AU)
                 (AU) (AG) (AG) (AU) (AG) (AU) (AG)
       Virtual   (AU) (AG) (AU) (AG) (AU) (AG) (AU) (AG) (AU) (AG)
                 (AU) (AG) (AU) (AG) (AU) (AU) (AG) (AG) (AG) (AU)
                 (AG) (AU) (AU) (AU) (AG) (AU) (AG) (AU) (AG) (AG)
                 (AG) (AU) (AU) (AG) (AU) (AU) (AG) (AG) (AU) (AU)
                 (AU) (AG) (AG) (AG) (AU) (AG) (AU) (AU) (AG) (AG)
                 (AU) (AG) (AG) (AU) (AU) (AG) (AU) (AU) (AG) (AG)
                 (AU) (AG) (AU) (AU) (AG) (AG) (AU) (AU) (AG) (AU)
                 (AG) (AU) (AG) (AU) (AU) (AG) (AG) (AG) (AU) (AG)
                 (AU) (AU) (AG) (AU) (AU) (AG) (AG) (AU) (AU) (AG)
                 (AG) (AU) (AU) (AG) (AG) (AU) (AG) (AU) (AG) (AU)
                 (AG) (AU) (AU) (AG) (AU) (AG) (AG) (AU) (AG) (AU)
                 (AG) (AU) (AG) (AG) (AU) (AG) (AU) (AU) (AG) (AU)
                 (AG) (AG) (AU) (AG) (AU) (AU) (AU) (AG) (AG) (AU)
                 (AU) (AG) (AG) (AG) (AU) (AG) (AU) (AG) (AU) (AG)
                 (AU) (AU) (AG) (AU) (AU) (AG) (AG) (AG) (AG) (AU)
                 (AU) (AG) (AG) (AG) (AU) (AU) (AU) (AG) (AU) (AG)
                 (AG) (AG) (AU) (AG) (AU) (AU) (AU) (AG) (AU) (AG)
                 (AG) (AU) (AG) (AU) (AU) (AG) (AU) (AG) (AU) (AG)
                 (AU) (AG) (AU) (AG) (AU) (AG) (AU) (AU) (AG) (AU)
                 (AG) (AG) (AU) (AG) (AU) (AU) (AG) (AG) (AU) (AU)
                 (AU) (AG) (AG) (AU) (AG) (AU) (AG) (AU) (AG) (AU)
                 (AU) (AG) (AG) (AU) (AG) (AU) (AG) (AG) (AU) (AG)
                 (AU) (AU) (AG) (AU) (AG) (AU) (AG) (AU) (AG) (AU)
                 (AG) (AU) (AG) (AU) (AG) (AU) (AG) (AU) (AG) (AG)
                 (AU) (AG) (AU) (AU) (AG) (AU) (AG) (AU) (AG) (AG)
                 (AU) (AG) (AU) (AU) (AG) (AU) (AG) (AU) (AG) (AU)
                 (AG) (AU) (AU) (AG) (AG) (AG) (AU) (AG) (AG) (AU)
                 (AU) (AU) (AG) (AG) (AU) (AU) (AG) (AG) (AU) (AG)
                 (AU) (AG) (AU) (AG) (AG) (AU) (AU) (AG) (AU) (AU)
                 (AG) (AU) (AG) (AU) (AU) (AG) (AG) (AU) (AG) (AU)
                 (AG) (AG) (AU) (AU) (AG) (AG) (AU) (AU) (AG) (AU)
                 (AG) (AG) (AU) (AU) (AG) (AU) (AG) (AU) (AG) (AU)
                 (AG) (AU) (AU) (AG) (AU) (AG) (AG) (AG) (AU) (AU)
                 (AG) (AU) (AU) (AG) (AG) (AU) (AG) (AU) (AG) (AU)
                 (AG) (AG) (AU) (AU) (AG) (AG) (AU) (AU) (AG) (AU)
                 (AG) (AG) (AG) (AU) (AU) (AG) (AU) (AG) (AU) (AG)
                 (AU) (AU) (AG) (AU) (AG) (AU) (AG) (AG) (AG) (AU)
                 (AU) (AG) (AG) (AU) (AG) (AU) (AU) (AG) (AU) (AG)
                 (AU) (AG) (AU) (AU) (AG) (AG) (AU) (AG) (AU) (AG)
                 (AG) (AU) (AU) (AG) (AU) (AG) (AU) (AG) (AU) (AG)
                 (AU) (AG) (AU) (AU) (AG) (AG) (AU) (AU) (AG) (AG)
                 (AG) (AU) (AG) (AU) (AG) (AU) (AG) (AU) (AU) (AG)
                 (AU) (AG) (AU) (AU) (AG) (AG) (AU) (AG) (AU) (AG)
                 (AU) (AG) (AU) (AG) (AU) (AG) (AU) (AU) (AG) (AU)
                 (AG) (AU) (AU) (AG) (AG) (AG) (AU) (AG) (AU) (AU)
                 (AG) (AU) (AG) (AU) (AG) (AG) (AU) (AU) (AG) (AG)
                 (AU) (AU) (AG) (AU) (AG) (AU) (AG) (AG) (AU) (AG)
                 (AU) (AG) (AU) (AG) (AU) (AG) (AU) (AG) (AU) (AU)
                 (AG) (AG) (AG) (AU) (AG) (AU) (AG) (AU) (AG) (AU)
                 (AU) (AG) (AU) (AG) (AU) (AG) (AU) (AU) (AG) (AU)
                 (AU) (AG) (AG) (AG) (AU) (AG) (AU) (AG) (AU) (AG)
                 (AU) (AG) (AU) (AU) (AG) (AU) (AU) (AG) (AG) (AU)
                 (AG) (AU) (AG) (AU) (AU) (AG) (AG) (AU) (AG) (AU)
                 (AG) (AU) (AG) (AU) (AU) (AG) (AG) (AG) (AU) (AU)
                 (AG) (AG) (AG) (AU) (AG) (AU) (AU) (AG) (AU) (AG)
                 (AG) (AU) (AG) (AU) (AU) (AG) (AU) (AG) (AU) (AG)
                 (AG) (AU) (AG) (AU) (AU) (AG) (AG) (AU) (AG) (AU)
                 (AG) (AU) (AG) (AU) (AU) (AG) (AU) (AG) (AU) (AG)
                 (AU) (AU) (AG) (AU) (AG) (AU) (AG) (AU) (AG) (AU)
                 (AG) (AU) (AG) (AG) (AU) (AU) (AG) (AU) (AG) (AG)
                 (AU) (AU) (AG) (AG) (AU) (AG) (AU) (AG) (AU) (AU)
                 (AG) (AG) (AU) (AG) (AU) (AG) (AU) (AU) (AG) (AG)
                 (AU) (AG) (AU) (AG) (AU) (AU) (AG) (AG) (AU) (AG)
                 (AU) (AU) (AG) (AG) (AU)
 The electronic state of the initial guess is 1-AG.
 Leave Link  401 at Fri May 17 10:19:39 2024, MaxMem=  6291456000 cpu:        53.5
 (Enter /home/madghost/g09/l502.exe)
 Closed shell SCF:
 Using DIIS extrapolation, IDIIS=  1040.
 Integral symmetry usage will be decided dynamically.
 IVT=     1897486 IEndB=     1897486 NGot=  6291456000 MDV=  6290193737
 LenX=  6290193737 LenY=  6289575155
 Requested convergence on RMS density matrix=1.00D-08 within 128 cycles.
 Requested convergence on MAX density matrix=1.00D-06.
 Requested convergence on             energy=1.00D-06.
 No special actions if energy rises.
 Fock matrices will be formed incrementally for  20 cycles.
 Integral accuracy reduced to 1.0D-05 until final iterations.

 Cycle   1  Pass 0  IDiag  1:
 FoFJK:  IHMeth= 1 ICntrl=       0 DoSepK=F KAlg= 0 I1Cent=   0 FoldK=F
 IRaf= 750000000 NMat=   1 IRICut=       1 DoRegI=T DoRafI=F ISym2E= 1.
 FoFCou: FMM=F IPFlag=           0 FMFlag=      100000 FMFlg1=           0
         NFxFlg=           0 DoJE=F BraDBF=F KetDBF=F FulRan=T
         wScrn=  0.000000 ICntrl=       0 IOpCl=  0 I1Cent=           0 NGrid=           0
         NMat0=    1 NMatS0=      1 NMatT0=    0 NMatD0=    1 NMtDS0=    0 NMtDT0=    0
 Petite list used in FoFCou.
 E= -691.423511397170    
 DIIS: error= 2.47D-02 at cycle   1 NSaved=   1.
 NSaved= 1 IEnMin= 1 EnMin= -691.423511397170     IErMin= 1 ErrMin= 2.47D-02
 ErrMax= 2.47D-02  0.00D+00 EMaxC= 1.00D-01 BMatC= 3.92D-01 BMatP= 3.92D-01
 IDIUse=3 WtCom= 7.53D-01 WtEn= 2.47D-01
 Coeff-Com:  0.100D+01
 Coeff-En:   0.100D+01
 Coeff:      0.100D+01
 Gap=     0.259 Goal=   None    Shift=    0.000
 GapD=    0.259 DampG=1.000 DampE=0.500 DampFc=0.5000 IDamp=-1.
 Damping current iteration by 5.00D-01
 RMSDP=4.59D-03 MaxDP=2.74D-01              OVMax= 2.03D-01

 Cycle   2  Pass 0  IDiag  1:
 RMSU=  2.29D-03    CP:  1.03D+00
 E= -691.591448443618     Delta-E=       -0.167937046448 Rises=F Damp=T
 DIIS: error= 4.53D-03 at cycle   2 NSaved=   2.
 NSaved= 2 IEnMin= 2 EnMin= -691.591448443618     IErMin= 2 ErrMin= 4.53D-03
 ErrMax= 4.53D-03  0.00D+00 EMaxC= 1.00D-01 BMatC= 2.89D-02 BMatP= 3.92D-01
 IDIUse=3 WtCom= 9.55D-01 WtEn= 4.53D-02
 Coeff-Com: -0.936D-02 0.101D+01
 Coeff-En:   0.487D-01 0.951D+00
 Coeff:     -0.673D-02 0.101D+01
 Gap=     0.292 Goal=   None    Shift=    0.000
 RMSDP=1.52D-03 MaxDP=7.78D-02 DE=-1.68D-01 OVMax= 1.47D-01

 Cycle   3  Pass 0  IDiag  1:
 RMSU=  8.18D-04    CP:  1.06D+00  1.55D+00
 E= -691.771357928668     Delta-E=       -0.179909485050 Rises=F Damp=F
 DIIS: error= 5.37D-03 at cycle   3 NSaved=   3.
 NSaved= 3 IEnMin= 3 EnMin= -691.771357928668     IErMin= 2 ErrMin= 4.53D-03
 ErrMax= 5.37D-03  0.00D+00 EMaxC= 1.00D-01 BMatC= 2.04D-02 BMatP= 2.89D-02
 IDIUse=3 WtCom= 9.46D-01 WtEn= 5.37D-02
 Coeff-Com: -0.701D-01 0.479D+00 0.591D+00
 Coeff-En:   0.000D+00 0.000D+00 0.100D+01
 Coeff:     -0.664D-01 0.453D+00 0.613D+00
 Gap=     0.232 Goal=   None    Shift=    0.000
 RMSDP=9.97D-04 MaxDP=6.74D-02 DE=-1.80D-01 OVMax= 6.93D-02

 Cycle   4  Pass 0  IDiag  1:
 RMSU=  4.00D-04    CP:  1.03D+00  1.18D+00  6.36D-01
 E= -691.785667337705     Delta-E=       -0.014309409037 Rises=F Damp=F
 DIIS: error= 3.50D-03 at cycle   4 NSaved=   4.
 NSaved= 4 IEnMin= 4 EnMin= -691.785667337705     IErMin= 4 ErrMin= 3.50D-03
 ErrMax= 3.50D-03  0.00D+00 EMaxC= 1.00D-01 BMatC= 6.50D-03 BMatP= 2.04D-02
 IDIUse=3 WtCom= 9.65D-01 WtEn= 3.50D-02
 Coeff-Com: -0.423D-01 0.150D+00 0.390D+00 0.503D+00
 Coeff-En:   0.000D+00 0.000D+00 0.263D+00 0.737D+00
 Coeff:     -0.408D-01 0.144D+00 0.385D+00 0.511D+00
 Gap=     0.223 Goal=   None    Shift=    0.000
 RMSDP=4.30D-04 MaxDP=2.80D-02 DE=-1.43D-02 OVMax= 2.71D-02

 Cycle   5  Pass 0  IDiag  1:
 RMSU=  6.03D-05    CP:  1.04D+00  1.35D+00  7.75D-01  6.05D-01
 E= -691.792222387132     Delta-E=       -0.006555049427 Rises=F Damp=F
 DIIS: error= 4.89D-04 at cycle   5 NSaved=   5.
 NSaved= 5 IEnMin= 5 EnMin= -691.792222387132     IErMin= 5 ErrMin= 4.89D-04
 ErrMax= 4.89D-04  0.00D+00 EMaxC= 1.00D-01 BMatC= 1.70D-04 BMatP= 6.50D-03
 IDIUse=3 WtCom= 9.95D-01 WtEn= 4.89D-03
 Coeff-Com: -0.125D-01 0.296D-01 0.115D+00 0.218D+00 0.649D+00
 Coeff-En:   0.000D+00 0.000D+00 0.000D+00 0.000D+00 0.100D+01
 Coeff:     -0.124D-01 0.294D-01 0.115D+00 0.217D+00 0.651D+00
 Gap=     0.223 Goal=   None    Shift=    0.000
 RMSDP=4.58D-05 MaxDP=2.27D-03 DE=-6.56D-03 OVMax= 3.84D-03

 Cycle   6  Pass 0  IDiag  1:
 RMSU=  2.89D-05    CP:  1.04D+00  1.36D+00  7.88D-01  6.15D-01  9.04D-01
 E= -691.792383064600     Delta-E=       -0.000160677468 Rises=F Damp=F
 DIIS: error= 1.48D-04 at cycle   6 NSaved=   6.
 NSaved= 6 IEnMin= 6 EnMin= -691.792383064600     IErMin= 6 ErrMin= 1.48D-04
 ErrMax= 1.48D-04  0.00D+00 EMaxC= 1.00D-01 BMatC= 1.89D-05 BMatP= 1.70D-04
 IDIUse=3 WtCom= 9.99D-01 WtEn= 1.48D-03
 Coeff-Com: -0.461D-02 0.852D-02 0.431D-01 0.928D-01 0.352D+00 0.508D+00
 Coeff-En:   0.000D+00 0.000D+00 0.000D+00 0.000D+00 0.000D+00 0.100D+01
 Coeff:     -0.460D-02 0.850D-02 0.430D-01 0.927D-01 0.352D+00 0.509D+00
 Gap=     0.223 Goal=   None    Shift=    0.000
 RMSDP=1.95D-05 MaxDP=9.74D-04 DE=-1.61D-04 OVMax= 9.06D-04

 Cycle   7  Pass 0  IDiag  1:
 RMSU=  1.17D-05    CP:  1.04D+00  1.37D+00  7.93D-01  6.20D-01  8.85D-01
                    CP:  1.08D+00
 E= -691.792401165804     Delta-E=       -0.000018101205 Rises=F Damp=F
 DIIS: error= 2.24D-05 at cycle   7 NSaved=   7.
 NSaved= 7 IEnMin= 7 EnMin= -691.792401165804     IErMin= 7 ErrMin= 2.24D-05
 ErrMax= 2.24D-05  0.00D+00 EMaxC= 1.00D-01 BMatC= 7.61D-07 BMatP= 1.89D-05
 IDIUse=1 WtCom= 1.00D+00 WtEn= 0.00D+00
 Coeff-Com: -0.776D-03 0.744D-03 0.737D-02 0.179D-01 0.866D-01 0.212D+00
 Coeff-Com:  0.677D+00
 Coeff:     -0.776D-03 0.744D-03 0.737D-02 0.179D-01 0.866D-01 0.212D+00
 Coeff:      0.677D+00
 Gap=     0.223 Goal=   None    Shift=    0.000
 RMSDP=8.93D-06 MaxDP=3.28D-04 DE=-1.81D-05 OVMax= 1.85D-04

 Initial convergence to 1.0D-05 achieved.  Increase integral accuracy.
 Cycle   8  Pass 1  IDiag  1:
 E= -691.792404621757     Delta-E=       -0.000003455953 Rises=F Damp=F
 DIIS: error= 5.90D-04 at cycle   1 NSaved=   1.
 NSaved= 1 IEnMin= 1 EnMin= -691.792404621757     IErMin= 1 ErrMin= 5.90D-04
 ErrMax= 5.90D-04  0.00D+00 EMaxC= 1.00D-01 BMatC= 4.09D-05 BMatP= 4.09D-05
 IDIUse=3 WtCom= 9.94D-01 WtEn= 5.90D-03
 Coeff-Com:  0.100D+01
 Coeff-En:   0.100D+01
 Coeff:      0.100D+01
 Gap=     0.223 Goal=   None    Shift=    0.000
 RMSDP=8.93D-06 MaxDP=3.28D-04 DE=-3.46D-06 OVMax= 1.88D-03

 Cycle   9  Pass 1  IDiag  1:
 RMSU=  1.84D-03    CP:  8.18D-01
 E= -691.792442675638     Delta-E=       -0.000038053881 Rises=F Damp=F
 DIIS: error= 1.91D-05 at cycle   2 NSaved=   2.
 NSaved= 2 IEnMin= 2 EnMin= -691.792442675638     IErMin= 2 ErrMin= 1.91D-05
 ErrMax= 1.91D-05  0.00D+00 EMaxC= 1.00D-01 BMatC= 3.83D-07 BMatP= 4.09D-05
 IDIUse=1 WtCom= 1.00D+00 WtEn= 0.00D+00
 Coeff-Com:  0.317D-02 0.997D+00
 Coeff:      0.317D-02 0.997D+00
 Gap=     0.223 Goal=   None    Shift=    0.000
 RMSDP=3.60D-05 MaxDP=1.82D-03 DE=-3.81D-05 OVMax= 3.19D-04

 Cycle  10  Pass 1  IDiag  1:
 RMSU=  9.22D-06    CP:  8.15D-01  1.02D+00
 E= -691.792442233342     Delta-E=        0.000000442296 Rises=F Damp=F
 DIIS: error= 3.25D-05 at cycle   3 NSaved=   3.
 NSaved= 3 IEnMin= 2 EnMin= -691.792442675638     IErMin= 2 ErrMin= 1.91D-05
 ErrMax= 3.25D-05  0.00D+00 EMaxC= 1.00D-01 BMatC= 8.98D-07 BMatP= 3.83D-07
 IDIUse=1 WtCom= 1.00D+00 WtEn= 0.00D+00
 Coeff-Com: -0.719D-02 0.610D+00 0.397D+00
 Coeff:     -0.719D-02 0.610D+00 0.397D+00
 Gap=     0.223 Goal=   None    Shift=    0.000
 RMSDP=1.93D-06 MaxDP=1.02D-04 DE= 4.42D-07 OVMax= 2.23D-04

 Cycle  11  Pass 1  IDiag  1:
 RMSU=  1.14D-06    CP:  8.15D-01  1.02D+00  1.03D+00
 E= -691.792443002298     Delta-E=       -0.000000768956 Rises=F Damp=F
 DIIS: error= 3.33D-06 at cycle   4 NSaved=   4.
 NSaved= 4 IEnMin= 4 EnMin= -691.792443002298     IErMin= 4 ErrMin= 3.33D-06
 ErrMax= 3.33D-06  0.00D+00 EMaxC= 1.00D-01 BMatC= 6.92D-09 BMatP= 3.83D-07
 IDIUse=1 WtCom= 1.00D+00 WtEn= 0.00D+00
 Coeff-Com: -0.390D-02 0.316D+00 0.214D+00 0.473D+00
 Coeff:     -0.390D-02 0.316D+00 0.214D+00 0.473D+00
 Gap=     0.223 Goal=   None    Shift=    0.000
 RMSDP=3.30D-07 MaxDP=1.92D-05 DE=-7.69D-07 OVMax= 2.44D-05

 Cycle  12  Pass 1  IDiag  1:
 RMSU=  1.38D-07    CP:  8.15D-01  1.02D+00  1.04D+00  1.02D+00
 E= -691.792443009034     Delta-E=       -0.000000006736 Rises=F Damp=F
 DIIS: error= 7.98D-07 at cycle   5 NSaved=   5.
 NSaved= 5 IEnMin= 5 EnMin= -691.792443009034     IErMin= 5 ErrMin= 7.98D-07
 ErrMax= 7.98D-07  0.00D+00 EMaxC= 1.00D-01 BMatC= 4.07D-10 BMatP= 6.92D-09
 IDIUse=1 WtCom= 1.00D+00 WtEn= 0.00D+00
 Coeff-Com: -0.388D-03 0.266D-01 0.227D-01 0.196D+00 0.755D+00
 Coeff:     -0.388D-03 0.266D-01 0.227D-01 0.196D+00 0.755D+00
 Gap=     0.223 Goal=   None    Shift=    0.000
 RMSDP=2.10D-07 MaxDP=1.02D-05 DE=-6.74D-09 OVMax= 8.54D-06

 Cycle  13  Pass 1  IDiag  1:
 RMSU=  7.01D-08    CP:  8.14D-01  1.02D+00  1.05D+00  1.04D+00  1.13D+00
 E= -691.792443009176     Delta-E=       -0.000000000142 Rises=F Damp=F
 DIIS: error= 4.05D-07 at cycle   6 NSaved=   6.
 NSaved= 6 IEnMin= 6 EnMin= -691.792443009176     IErMin= 6 ErrMin= 4.05D-07
 ErrMax= 4.05D-07  0.00D+00 EMaxC= 1.00D-01 BMatC= 1.47D-10 BMatP= 4.07D-10
 IDIUse=1 WtCom= 1.00D+00 WtEn= 0.00D+00
 Coeff-Com:  0.132D-03-0.135D-01-0.625D-02 0.765D-01 0.477D+00 0.466D+00
 Coeff:      0.132D-03-0.135D-01-0.625D-02 0.765D-01 0.477D+00 0.466D+00
 Gap=     0.223 Goal=   None    Shift=    0.000
 RMSDP=8.10D-08 MaxDP=5.45D-06 DE=-1.42D-10 OVMax= 4.09D-06

 Cycle  14  Pass 1  IDiag  1:
 RMSU=  2.98D-08    CP:  8.14D-01  1.02D+00  1.05D+00  1.06D+00  1.25D+00
                    CP:  8.97D-01
 E= -691.792443009365     Delta-E=       -0.000000000190 Rises=F Damp=F
 DIIS: error= 4.30D-08 at cycle   7 NSaved=   7.
 NSaved= 7 IEnMin= 7 EnMin= -691.792443009365     IErMin= 7 ErrMin= 4.30D-08
 ErrMax= 4.30D-08  0.00D+00 EMaxC= 1.00D-01 BMatC= 1.37D-12 BMatP= 1.47D-10
 IDIUse=1 WtCom= 1.00D+00 WtEn= 0.00D+00
 Coeff-Com:  0.635D-04-0.608D-02-0.312D-02 0.223D-01 0.153D+00 0.181D+00
 Coeff-Com:  0.653D+00
 Coeff:      0.635D-04-0.608D-02-0.312D-02 0.223D-01 0.153D+00 0.181D+00
 Coeff:      0.653D+00
 Gap=     0.223 Goal=   None    Shift=    0.000
 RMSDP=2.70D-09 MaxDP=9.58D-08 DE=-1.90D-10 OVMax= 2.84D-07

 SCF Done:  E(RPBE1PBE) =  -691.792443009     A.U. after   14 cycles
            NFock= 14  Conv=0.27D-08     -V/T= 2.0047
 KE= 6.885814855645D+02 PE=-3.588273326324D+03 EE= 1.219293886535D+03
 Leave Link  502 at Fri May 17 10:22:49 2024, MaxMem=  6291456000 cpu:      4554.9
 (Enter /home/madghost/g09/l601.exe)
 Copying SCF densities to generalized density rwf, IOpCl= 0 IROHF=0.

 **********************************************************************

            Population analysis using the SCF density.

 **********************************************************************

 Orbital symmetries:
       Occupied  (AU) (AG) (AU) (AG) (AG) (AU) (AU) (AG) (AU) (AG)
                 (AU) (AG) (AU) (AG) (AU) (AG) (AG) (AU) (AG) (AU)
                 (AG) (AU) (AG) (AU) (AG) (AU) (AU) (AG) (AG) (AU)
                 (AU) (AG) (AU) (AU) (AG) (AG) (AG) (AU) (AG) (AU)
                 (AG) (AU) (AU) (AG) (AG) (AU) (AG) (AU) (AG) (AU)
                 (AU) (AG) (AG) (AU) (AG) (AU) (AG)
       Virtual   (AU) (AG) (AU) (AG) (AG) (AU) (AU) (AG) (AU) (AU)
                 (AG) (AU) (AG) (AU) (AG) (AG) (AU) (AG) (AG) (AU)
                 (AU) (AG) (AU) (AG) (AU) (AG) (AG) (AU) (AG) (AU)
                 (AU) (AG) (AU) (AG) (AG) (AU) (AU) (AG) (AU) (AG)
                 (AU) (AG) (AU) (AG) (AU) (AU) (AG) (AG) (AG) (AU)
                 (AU) (AU) (AG) (AU) (AG) (AG) (AU) (AG) (AU) (AG)
                 (AU) (AG) (AU) (AG) (AU) (AU) (AG) (AU) (AG) (AU)
                 (AG) (AU) (AG) (AG) (AU) (AG) (AU) (AG) (AU) (AU)
                 (AG) (AU) (AU) (AG) (AU) (AG) (AU) (AG) (AG) (AU)
                 (AU) (AG) (AU) (AG) (AG) (AU) (AG) (AU) (AU) (AG)
                 (AG) (AU) (AG) (AU) (AG) (AU) (AG) (AG) (AU) (AG)
                 (AU) (AG) (AU) (AU) (AG) (AG) (AU) (AU) (AG) (AG)
                 (AU) (AU) (AG) (AU) (AG) (AU) (AU) (AG) (AG) (AG)
                 (AU) (AU) (AG) (AG) (AU) (AU) (AG) (AG) (AU) (AG)
                 (AU) (AG) (AU) (AU) (AG) (AG) (AG) (AU) (AG) (AU)
                 (AU) (AG) (AG) (AG) (AU) (AU) (AG) (AU) (AU) (AG)
                 (AG) (AU) (AG) (AU) (AG) (AU) (AU) (AG) (AU) (AG)
                 (AU) (AG) (AU) (AG) (AU) (AG) (AU) (AG) (AU) (AG)
                 (AU) (AG) (AU) (AU) (AG) (AG) (AU) (AU) (AG) (AU)
                 (AG) (AU) (AG) (AG) (AU) (AG) (AU) (AU) (AG) (AU)
                 (AU) (AG) (AG) (AG) (AU) (AU) (AG) (AU) (AU) (AG)
                 (AG) (AU) (AG) (AG) (AU) (AU) (AG) (AG) (AG) (AU)
                 (AU) (AU) (AG) (AU) (AG) (AG) (AU) (AU) (AG) (AU)
                 (AG) (AG) (AU) (AU) (AG) (AU) (AG) (AG) (AU) (AG)
                 (AU) (AG) (AU) (AU) (AG) (AU) (AG) (AU) (AG) (AG)
                 (AG) (AU) (AU) (AU) (AG) (AU) (AG) (AU) (AG) (AU)
                 (AG) (AU) (AU) (AG) (AG) (AG) (AU) (AG) (AU) (AU)
                 (AG) (AU) (AG) (AG) (AU) (AU) (AG) (AG) (AU) (AG)
                 (AU) (AG) (AU) (AG) (AG) (AU) (AU) (AG) (AU) (AU)
                 (AG) (AU) (AG) (AU) (AU) (AG) (AG) (AU) (AU) (AG)
                 (AG) (AG) (AU) (AU) (AG) (AG) (AU) (AU) (AG) (AG)
                 (AU) (AU) (AG) (AU) (AG) (AU) (AG) (AU) (AG) (AU)
                 (AG) (AU) (AU) (AG) (AU) (AG) (AG) (AU) (AG) (AU)
                 (AG) (AU) (AU) (AG) (AG) (AU) (AG) (AU) (AG) (AU)
                 (AG) (AG) (AU) (AU) (AG) (AU) (AG) (AU) (AG) (AG)
                 (AU) (AG) (AU) (AG) (AU) (AG) (AU) (AG) (AU) (AG)
                 (AU) (AG) (AU) (AG) (AU) (AG) (AU) (AG) (AG) (AU)
                 (AU) (AG) (AG) (AU) (AG) (AU) (AU) (AG) (AU) (AG)
                 (AU) (AG) (AU) (AG) (AU) (AG) (AG) (AU) (AU) (AG)
                 (AG) (AU) (AU) (AG) (AU) (AG) (AU) (AG) (AU) (AG)
                 (AU) (AG) (AU) (AG) (AU) (AG) (AU) (AU) (AG) (AG)
                 (AG) (AU) (AG) (AU) (AG) (AG) (AU) (AU) (AG) (AU)
                 (AU) (AG) (AU) (AU) (AG) (AU) (AG) (AG) (AU) (AG)
                 (AU) (AG) (AU) (AG) (AU) (AG) (AU) (AU) (AG) (AU)
                 (AG) (AU) (AU) (AG) (AG) (AU) (AG) (AG) (AU) (AU)
                 (AG) (AU) (AG) (AG) (AU) (AG) (AU) (AU) (AG) (AG)
                 (AU) (AU) (AG) (AU) (AG) (AU) (AG) (AG) (AU) (AG)
                 (AG) (AU) (AU) (AG) (AG) (AU) (AU) (AU) (AG) (AG)
                 (AU) (AG) (AG) (AU) (AG) (AU) (AG) (AU) (AG) (AU)
                 (AU) (AG) (AU) (AG) (AU) (AU) (AG) (AU) (AG) (AU)
                 (AG) (AU) (AG) (AG) (AU) (AG) (AU) (AG) (AU) (AG)
                 (AU) (AU) (AG) (AU) (AG) (AU) (AU) (AG) (AG) (AU)
                 (AG) (AU) (AG) (AU) (AG) (AU) (AG) (AU) (AG) (AU)
                 (AG) (AU) (AG) (AU) (AG) (AU) (AG) (AG) (AU) (AU)
                 (AG) (AG) (AG) (AU) (AU) (AG) (AU) (AG) (AU) (AG)
                 (AG) (AU) (AG) (AU) (AU) (AG) (AU) (AG) (AU) (AG)
                 (AG) (AU) (AG) (AU) (AU) (AG) (AG) (AU) (AG) (AG)
                 (AU) (AU) (AG) (AU) (AU) (AG) (AU) (AG) (AU) (AG)
                 (AU) (AU) (AG) (AU) (AG) (AU) (AG) (AU) (AG) (AU)
                 (AG) (AU) (AG) (AG) (AU) (AU) (AG) (AU) (AG) (AG)
                 (AU) (AU) (AG) (AG) (AU) (AG) (AU) (AG) (AU) (AU)
                 (AG) (AG) (AU) (AG) (AU) (AG) (AU) (AU) (AG) (AG)
                 (AU) (AU) (AG) (AG) (AU) (AU) (AG) (AG) (AU) (AG)
                 (AU) (AU) (AG) (AG) (AU)
 The electronic state is 1-AG.
 Alpha  occ. eigenvalues --  -19.24700 -19.24700 -10.29047 -10.29047 -10.28439
 Alpha  occ. eigenvalues --  -10.28413 -10.23109 -10.23109 -10.22978 -10.22978
 Alpha  occ. eigenvalues --  -10.22831 -10.22831 -10.22365 -10.22365 -10.22134
 Alpha  occ. eigenvalues --  -10.22134  -1.11432  -1.10615  -0.88739  -0.88514
 Alpha  occ. eigenvalues --   -0.81435  -0.77940  -0.77588  -0.77507  -0.74572
 Alpha  occ. eigenvalues --   -0.68724  -0.63731  -0.63406  -0.61839  -0.60707
 Alpha  occ. eigenvalues --   -0.56984  -0.55978  -0.52498  -0.50886  -0.50767
 Alpha  occ. eigenvalues --   -0.49670  -0.48163  -0.47364  -0.45910  -0.44948
 Alpha  occ. eigenvalues --   -0.43845  -0.43498  -0.42925  -0.42129  -0.39707
 Alpha  occ. eigenvalues --   -0.39116  -0.37891  -0.37738  -0.36518  -0.36169
 Alpha  occ. eigenvalues --   -0.34537  -0.34005  -0.33310  -0.27249  -0.27186
 Alpha  occ. eigenvalues --   -0.24543  -0.23474
 Alpha virt. eigenvalues --   -0.01142  -0.01043   0.00315   0.00517   0.04992
 Alpha virt. eigenvalues --    0.05018   0.06990   0.07288   0.07728   0.09152
 Alpha virt. eigenvalues --    0.09361   0.09999   0.11019   0.11231   0.11998
 Alpha virt. eigenvalues --    0.12705   0.13297   0.13598   0.15459   0.15541
 Alpha virt. eigenvalues --    0.15916   0.16505   0.16635   0.17452   0.19513
 Alpha virt. eigenvalues --    0.19853   0.20749   0.21232   0.21357   0.21574
 Alpha virt. eigenvalues --    0.22573   0.23343   0.23437   0.23645   0.24327
 Alpha virt. eigenvalues --    0.24365   0.24776   0.25481   0.26677   0.26711
 Alpha virt. eigenvalues --    0.27476   0.28531   0.29035   0.29404   0.29765
 Alpha virt. eigenvalues --    0.31323   0.31362   0.32987   0.33444   0.33854
 Alpha virt. eigenvalues --    0.34414   0.35332   0.35452   0.36322   0.36456
 Alpha virt. eigenvalues --    0.36831   0.37092   0.37636   0.38413   0.39280
 Alpha virt. eigenvalues --    0.39493   0.40364   0.40726   0.41758   0.41997
 Alpha virt. eigenvalues --    0.42602   0.42825   0.43451   0.44006   0.44212
 Alpha virt. eigenvalues --    0.44344   0.45029   0.45378   0.45628   0.45816
 Alpha virt. eigenvalues --    0.46934   0.47345   0.48690   0.48719   0.49444
 Alpha virt. eigenvalues --    0.50200   0.50346   0.50701   0.51565   0.52129
 Alpha virt. eigenvalues --    0.52729   0.53344   0.53755   0.54752   0.55314
 Alpha virt. eigenvalues --    0.57062   0.58695   0.60568   0.60734   0.60831
 Alpha virt. eigenvalues --    0.61960   0.62962   0.64808   0.65633   0.65648
 Alpha virt. eigenvalues --    0.66663   0.66833   0.67591   0.68120   0.68265
 Alpha virt. eigenvalues --    0.69065   0.69516   0.70393   0.70662   0.71750
 Alpha virt. eigenvalues --    0.71938   0.73747   0.74429   0.74647   0.75067
 Alpha virt. eigenvalues --    0.75850   0.76231   0.77082   0.77895   0.79146
 Alpha virt. eigenvalues --    0.79699   0.80565   0.81657   0.82026   0.82775
 Alpha virt. eigenvalues --    0.83641   0.84128   0.85350   0.85746   0.87103
 Alpha virt. eigenvalues --    0.88172   0.88968   0.89988   0.91704   0.92237
 Alpha virt. eigenvalues --    0.94156   0.94180   0.95843   0.96034   0.97467
 Alpha virt. eigenvalues --    0.97514   0.98822   0.98843   0.99403   0.99838
 Alpha virt. eigenvalues --    1.00050   1.01057   1.01225   1.03240   1.03764
 Alpha virt. eigenvalues --    1.04811   1.05411   1.05902   1.06823   1.07530
 Alpha virt. eigenvalues --    1.07906   1.11019   1.11329   1.11652   1.13189
 Alpha virt. eigenvalues --    1.14338   1.14678   1.14725   1.16153   1.17373
 Alpha virt. eigenvalues --    1.17904   1.18935   1.19364   1.19638   1.20383
 Alpha virt. eigenvalues --    1.21769   1.21891   1.22809   1.23392   1.23502
 Alpha virt. eigenvalues --    1.24301   1.25760   1.26598   1.28322   1.29847
 Alpha virt. eigenvalues --    1.29915   1.30984   1.31201   1.31566   1.31896
 Alpha virt. eigenvalues --    1.33412   1.33872   1.34174   1.34348   1.35030
 Alpha virt. eigenvalues --    1.36037   1.37735   1.38015   1.38296   1.39063
 Alpha virt. eigenvalues --    1.41165   1.41724   1.44043   1.44167   1.44471
 Alpha virt. eigenvalues --    1.45044   1.46253   1.47051   1.47329   1.47526
 Alpha virt. eigenvalues --    1.48427   1.50729   1.51281   1.51343   1.51949
 Alpha virt. eigenvalues --    1.52868   1.54186   1.54327   1.55555   1.55878
 Alpha virt. eigenvalues --    1.56299   1.57486   1.58868   1.60421   1.60981
 Alpha virt. eigenvalues --    1.61201   1.61376   1.61800   1.63075   1.63534
 Alpha virt. eigenvalues --    1.65628   1.66584   1.67966   1.68601   1.68847
 Alpha virt. eigenvalues --    1.70617   1.72304   1.72603   1.73645   1.75099
 Alpha virt. eigenvalues --    1.75387   1.76839   1.80719   1.80828   1.85169
 Alpha virt. eigenvalues --    1.85744   1.85833   1.86426   1.88100   1.89809
 Alpha virt. eigenvalues --    1.92807   1.93327   1.95424   1.95477   1.97255
 Alpha virt. eigenvalues --    1.98340   1.98634   1.98758   2.00736   2.01419
 Alpha virt. eigenvalues --    2.02406   2.03904   2.05596   2.06494   2.06856
 Alpha virt. eigenvalues --    2.09490   2.09846   2.11199   2.11545   2.14547
 Alpha virt. eigenvalues --    2.17225   2.20437   2.20444   2.25877   2.26516
 Alpha virt. eigenvalues --    2.27821   2.28263   2.28645   2.29478   2.30311
 Alpha virt. eigenvalues --    2.33945   2.34633   2.35210   2.36443   2.37664
 Alpha virt. eigenvalues --    2.38337   2.38744   2.39005   2.40105   2.43418
 Alpha virt. eigenvalues --    2.44206   2.44954   2.46176   2.48429   2.51553
 Alpha virt. eigenvalues --    2.54949   2.55480   2.57209   2.58965   2.62145
 Alpha virt. eigenvalues --    2.62264   2.64175   2.65392   2.65874   2.66020
 Alpha virt. eigenvalues --    2.66825   2.68995   2.69941   2.71851   2.72475
 Alpha virt. eigenvalues --    2.73398   2.74061   2.75008   2.75155   2.77546
 Alpha virt. eigenvalues --    2.78212   2.78716   2.78915   2.79209   2.80512
 Alpha virt. eigenvalues --    2.80523   2.81607   2.83079   2.84073   2.84227
 Alpha virt. eigenvalues --    2.85006   2.85934   2.88280   2.89107   2.90210
 Alpha virt. eigenvalues --    2.90379   2.91240   2.91628   2.91860   2.92910
 Alpha virt. eigenvalues --    2.93223   2.93351   2.94791   2.95352   2.97033
 Alpha virt. eigenvalues --    2.98177   2.99677   3.01020   3.01916   3.02695
 Alpha virt. eigenvalues --    3.03814   3.04481   3.04613   3.04883   3.05696
 Alpha virt. eigenvalues --    3.06067   3.06099   3.06365   3.06880   3.07834
 Alpha virt. eigenvalues --    3.08064   3.09668   3.10603   3.11463   3.11605
 Alpha virt. eigenvalues --    3.13922   3.14431   3.14818   3.15507   3.15540
 Alpha virt. eigenvalues --    3.15678   3.17418   3.17534   3.18293   3.18398
 Alpha virt. eigenvalues --    3.18759   3.19236   3.20161   3.21793   3.23308
 Alpha virt. eigenvalues --    3.23692   3.23694   3.24506   3.24922   3.26149
 Alpha virt. eigenvalues --    3.26799   3.28009   3.28463   3.30015   3.30915
 Alpha virt. eigenvalues --    3.32676   3.33141   3.33466   3.34295   3.34641
 Alpha virt. eigenvalues --    3.35156   3.35333   3.35512   3.35889   3.35915
 Alpha virt. eigenvalues --    3.38213   3.38392   3.38934   3.39205   3.39902
 Alpha virt. eigenvalues --    3.42160   3.42899   3.43776   3.44785   3.45208
 Alpha virt. eigenvalues --    3.47214   3.48922   3.49134   3.50275   3.50500
 Alpha virt. eigenvalues --    3.51444   3.52938   3.54414   3.54492   3.54884
 Alpha virt. eigenvalues --    3.55618   3.56264   3.56332   3.58418   3.60352
 Alpha virt. eigenvalues --    3.61092   3.61280   3.62149   3.63248   3.63975
 Alpha virt. eigenvalues --    3.65909   3.67746   3.69309   3.70035   3.70244
 Alpha virt. eigenvalues --    3.72225   3.72426   3.76146   3.77205   3.77678
 Alpha virt. eigenvalues --    3.77874   3.78344   3.78536   3.79004   3.79816
 Alpha virt. eigenvalues --    3.79975   3.80348   3.81170   3.81366   3.81897
 Alpha virt. eigenvalues --    3.82729   3.83955   3.84157   3.84521   3.85844
 Alpha virt. eigenvalues --    3.86065   3.86230   3.88006   3.88083   3.89483
 Alpha virt. eigenvalues --    3.90386   3.91298   3.92633   3.93436   3.93615
 Alpha virt. eigenvalues --    3.95205   3.95489   3.96732   3.98466   3.99914
 Alpha virt. eigenvalues --    4.01623   4.02284   4.03228   4.05436   4.06393
 Alpha virt. eigenvalues --    4.06518   4.08314   4.10759   4.10876   4.11445
 Alpha virt. eigenvalues --    4.12317   4.12833   4.15050   4.16123   4.17016
 Alpha virt. eigenvalues --    4.17302   4.19199   4.20169   4.21390   4.22652
 Alpha virt. eigenvalues --    4.23069   4.23474   4.24577   4.24632   4.25846
 Alpha virt. eigenvalues --    4.26323   4.27109   4.27444   4.28641   4.28721
 Alpha virt. eigenvalues --    4.29012   4.30237   4.30767   4.32695   4.32712
 Alpha virt. eigenvalues --    4.34733   4.35187   4.36092   4.36125   4.37372
 Alpha virt. eigenvalues --    4.40901   4.41200   4.41809   4.42692   4.44555
 Alpha virt. eigenvalues --    4.44637   4.50086   4.52465   4.53239   4.56360
 Alpha virt. eigenvalues --    4.57226   4.57932   4.58022   4.61149   4.64001
 Alpha virt. eigenvalues --    4.64371   4.65355   4.65442   4.65993   4.66916
 Alpha virt. eigenvalues --    4.69166   4.69273   4.69823   4.70117   4.72648
 Alpha virt. eigenvalues --    4.72705   4.73739   4.74284   4.75487   4.77254
 Alpha virt. eigenvalues --    4.78168   4.80031   4.80897   4.81553   4.81798
 Alpha virt. eigenvalues --    4.82504   4.82721   4.84824   4.86646   4.88413
 Alpha virt. eigenvalues --    4.88997   4.92111   4.93006   4.97277   4.98674
 Alpha virt. eigenvalues --    4.98812   5.00525   5.00732   5.01230   5.03241
 Alpha virt. eigenvalues --    5.06605   5.07477   5.10925   5.11457   5.14725
 Alpha virt. eigenvalues --    5.15341   5.21460   5.21517   5.23418   5.23542
 Alpha virt. eigenvalues --    5.30388   5.30587   5.31120   5.32575   5.34130
 Alpha virt. eigenvalues --    5.35103   5.36642   5.36910   5.38195   5.40078
 Alpha virt. eigenvalues --    5.40352   5.42005   5.44530   5.44991   5.46365
 Alpha virt. eigenvalues --    5.48632   5.50780   5.51704   5.53761   5.57992
 Alpha virt. eigenvalues --    5.60987   5.61924   5.64988   5.65538   5.67512
 Alpha virt. eigenvalues --    5.70901   5.72308   5.73551   5.77923   5.81592
 Alpha virt. eigenvalues --    5.81805   5.88463   5.88520   5.94920   5.95224
 Alpha virt. eigenvalues --    6.00540   6.00809   6.05789   6.11995   6.14676
 Alpha virt. eigenvalues --    6.15379   6.28834   6.29460   6.50262   6.50515
 Alpha virt. eigenvalues --    6.57388   6.58188   6.76866   6.76966   6.85213
 Alpha virt. eigenvalues --    6.85680   6.94990   6.95762   7.02537   7.06785
 Alpha virt. eigenvalues --    7.36877   7.37673   7.53576   7.55042  22.68462
 Alpha virt. eigenvalues --   22.75329  23.19675  23.19872  23.27535  23.27752
 Alpha virt. eigenvalues --   23.31503  23.31942  23.38159  23.38422  23.46695
 Alpha virt. eigenvalues --   23.51727  24.15757  24.15952  44.53734  44.65433
          Condensed to atoms (all electrons):
               1          2          3          4          5          6
     1  C    4.844239   0.418901   0.408523   0.297151  -0.072925  -0.030957
     2  H    0.418901   0.609445  -0.016930  -0.072925   0.010583  -0.006789
     3  H    0.408523  -0.016930   0.554917  -0.030957  -0.006789   0.005069
     4  C    0.297151  -0.072925  -0.030957   4.844239   0.418901   0.408523
     5  H   -0.072925   0.010583  -0.006789   0.418901   0.609445  -0.016930
     6  H   -0.030957  -0.006789   0.005069   0.408523  -0.016930   0.554917
     7  O    0.256046  -0.036261  -0.025933  -0.042621   0.009608   0.001235
     8  O   -0.042621   0.009608   0.001235   0.256046  -0.036261  -0.025933
     9  C   -0.070581  -0.025896   0.004279   0.020455   0.000427   0.002071
    10  C   -0.000307   0.013910  -0.001527  -0.009105   0.002239  -0.000594
    11  C   -0.011470   0.006105  -0.000536   0.001512   0.001517  -0.001057
    12  C   -0.001002  -0.005285   0.000332   0.001508  -0.000674   0.002501
    13  C    0.000558  -0.001150   0.000132   0.000176  -0.000289   0.000189
    14  C   -0.000560   0.001058  -0.000056  -0.000214   0.000179  -0.000221
    15  H    0.000820   0.009852  -0.000635  -0.006238   0.001514  -0.004571
    16  H    0.000137   0.000413  -0.000224  -0.000379   0.000236  -0.000066
    17  H    0.000128  -0.000076   0.000001  -0.000036  -0.000006   0.000052
    18  H    0.000020  -0.000005   0.000000   0.000004  -0.000002   0.000001
    19  H   -0.000005   0.000004   0.000000   0.000002   0.000000  -0.000001
    20  C    0.020455   0.000427   0.002071  -0.070581  -0.025896   0.004279
    21  C   -0.009105   0.002239  -0.000594  -0.000307   0.013910  -0.001527
    22  C    0.001512   0.001517  -0.001057  -0.011470   0.006105  -0.000536
    23  C    0.001508  -0.000674   0.002501  -0.001002  -0.005285   0.000332
    24  C    0.000176  -0.000289   0.000189   0.000558  -0.001150   0.000132
    25  C   -0.000214   0.000179  -0.000221  -0.000560   0.001058  -0.000056
    26  H   -0.006238   0.001514  -0.004571   0.000820   0.009852  -0.000635
    27  H   -0.000379   0.000236  -0.000066   0.000137   0.000413  -0.000224
    28  H   -0.000036  -0.000006   0.000052   0.000128  -0.000076   0.000001
    29  H    0.000004  -0.000002   0.000001   0.000020  -0.000005   0.000000
    30  H    0.000002   0.000000  -0.000001  -0.000005   0.000004   0.000000
               7          8          9         10         11         12
     1  C    0.256046  -0.042621  -0.070581  -0.000307  -0.011470  -0.001002
     2  H   -0.036261   0.009608  -0.025896   0.013910   0.006105  -0.005285
     3  H   -0.025933   0.001235   0.004279  -0.001527  -0.000536   0.000332
     4  C   -0.042621   0.256046   0.020455  -0.009105   0.001512   0.001508
     5  H    0.009608  -0.036261   0.000427   0.002239   0.001517  -0.000674
     6  H    0.001235  -0.025933   0.002071  -0.000594  -0.001057   0.002501
     7  O    7.838675   0.003794   0.351296  -0.077842  -0.048344   0.010942
     8  O    0.003794   7.838675  -0.000134  -0.001788   0.000019  -0.000126
     9  C    0.351296  -0.000134   4.946896   0.203527   0.376279   0.120600
    10  C   -0.077842  -0.001788   0.203527   5.277752   0.121001   0.288159
    11  C   -0.048344   0.000019   0.376279   0.121001   4.975339  -0.126121
    12  C    0.010942  -0.000126   0.120600   0.288159  -0.126121   5.020373
    13  C    0.001919  -0.000006   0.040416  -0.127491   0.492956   0.029761
    14  C   -0.000693   0.000010  -0.119379   0.041196   0.008470   0.471743
    15  H   -0.006532   0.002463  -0.054515   0.433591   0.005681  -0.026936
    16  H    0.011381   0.000000  -0.067190   0.019613   0.429246  -0.006188
    17  H   -0.000171  -0.000004   0.000906  -0.018428   0.002699   0.396456
    18  H   -0.000195   0.000000   0.012695  -0.003961  -0.036908   0.010292
    19  H    0.000015   0.000000  -0.001167   0.009630   0.006526  -0.032617
    20  C   -0.000134   0.351296  -0.000392   0.000034   0.000064  -0.000058
    21  C   -0.001788  -0.077842   0.000034  -0.000126  -0.000045   0.000012
    22  C    0.000019  -0.048344   0.000064  -0.000045   0.000007  -0.000005
    23  C   -0.000126   0.010942  -0.000058   0.000012  -0.000005   0.000001
    24  C   -0.000006   0.001919  -0.000005   0.000004   0.000000   0.000000
    25  C    0.000010  -0.000693   0.000006  -0.000002   0.000000   0.000000
    26  H    0.002463  -0.006532   0.000143   0.000052   0.000080  -0.000013
    27  H    0.000000   0.011381   0.000008  -0.000016   0.000000  -0.000001
    28  H   -0.000004  -0.000171   0.000000   0.000000   0.000000   0.000000
    29  H    0.000000  -0.000195   0.000000   0.000000   0.000000   0.000000
    30  H    0.000000   0.000015   0.000000   0.000000   0.000000   0.000000
              13         14         15         16         17         18
     1  C    0.000558  -0.000560   0.000820   0.000137   0.000128   0.000020
     2  H   -0.001150   0.001058   0.009852   0.000413  -0.000076  -0.000005
     3  H    0.000132  -0.000056  -0.000635  -0.000224   0.000001   0.000000
     4  C    0.000176  -0.000214  -0.006238  -0.000379  -0.000036   0.000004
     5  H   -0.000289   0.000179   0.001514   0.000236  -0.000006  -0.000002
     6  H    0.000189  -0.000221  -0.004571  -0.000066   0.000052   0.000001
     7  O    0.001919  -0.000693  -0.006532   0.011381  -0.000171  -0.000195
     8  O   -0.000006   0.000010   0.002463   0.000000  -0.000004   0.000000
     9  C    0.040416  -0.119379  -0.054515  -0.067190   0.000906   0.012695
    10  C   -0.127491   0.041196   0.433591   0.019613  -0.018428  -0.003961
    11  C    0.492956   0.008470   0.005681   0.429246   0.002699  -0.036908
    12  C    0.029761   0.471743  -0.026936  -0.006188   0.396456   0.010292
    13  C    4.815487   0.487815  -0.000829  -0.038611   0.002842   0.417512
    14  C    0.487815   4.868632   0.007267   0.013009  -0.020629  -0.038394
    15  H   -0.000829   0.007267   0.542322  -0.000184  -0.003680   0.000056
    16  H   -0.038611   0.013009  -0.000184   0.542633   0.000103  -0.007713
    17  H    0.002842  -0.020629  -0.003680   0.000103   0.528322  -0.000508
    18  H    0.417512  -0.038394   0.000056  -0.007713  -0.000508   0.538234
    19  H   -0.030962   0.411957  -0.000353  -0.000290  -0.003723  -0.004206
    20  C   -0.000005   0.000006   0.000143   0.000008   0.000000   0.000000
    21  C    0.000004  -0.000002   0.000052  -0.000016   0.000000   0.000000
    22  C    0.000000   0.000000   0.000080   0.000000   0.000000   0.000000
    23  C    0.000000   0.000000  -0.000013  -0.000001   0.000000   0.000000
    24  C    0.000000   0.000000  -0.000006   0.000000   0.000000   0.000000
    25  C    0.000000   0.000000   0.000002   0.000000   0.000000   0.000000
    26  H   -0.000006   0.000002   0.000060   0.000025   0.000000   0.000000
    27  H    0.000000   0.000000   0.000025   0.000000   0.000000   0.000000
    28  H    0.000000   0.000000   0.000000   0.000000   0.000000   0.000000
    29  H    0.000000   0.000000   0.000000   0.000000   0.000000   0.000000
    30  H    0.000000   0.000000   0.000000   0.000000   0.000000   0.000000
              19         20         21         22         23         24
     1  C   -0.000005   0.020455  -0.009105   0.001512   0.001508   0.000176
     2  H    0.000004   0.000427   0.002239   0.001517  -0.000674  -0.000289
     3  H    0.000000   0.002071  -0.000594  -0.001057   0.002501   0.000189
     4  C    0.000002  -0.070581  -0.000307  -0.011470  -0.001002   0.000558
     5  H    0.000000  -0.025896   0.013910   0.006105  -0.005285  -0.001150
     6  H   -0.000001   0.004279  -0.001527  -0.000536   0.000332   0.000132
     7  O    0.000015  -0.000134  -0.001788   0.000019  -0.000126  -0.000006
     8  O    0.000000   0.351296  -0.077842  -0.048344   0.010942   0.001919
     9  C   -0.001167  -0.000392   0.000034   0.000064  -0.000058  -0.000005
    10  C    0.009630   0.000034  -0.000126  -0.000045   0.000012   0.000004
    11  C    0.006526   0.000064  -0.000045   0.000007  -0.000005   0.000000
    12  C   -0.032617  -0.000058   0.000012  -0.000005   0.000001   0.000000
    13  C   -0.030962  -0.000005   0.000004   0.000000   0.000000   0.000000
    14  C    0.411957   0.000006  -0.000002   0.000000   0.000000   0.000000
    15  H   -0.000353   0.000143   0.000052   0.000080  -0.000013  -0.000006
    16  H   -0.000290   0.000008  -0.000016   0.000000  -0.000001   0.000000
    17  H   -0.003723   0.000000   0.000000   0.000000   0.000000   0.000000
    18  H   -0.004206   0.000000   0.000000   0.000000   0.000000   0.000000
    19  H    0.530631   0.000000   0.000000   0.000000   0.000000   0.000000
    20  C    0.000000   4.946896   0.203527   0.376279   0.120600   0.040416
    21  C    0.000000   0.203527   5.277752   0.121001   0.288159  -0.127491
    22  C    0.000000   0.376279   0.121001   4.975339  -0.126121   0.492956
    23  C    0.000000   0.120600   0.288159  -0.126121   5.020373   0.029761
    24  C    0.000000   0.040416  -0.127491   0.492956   0.029761   4.815487
    25  C    0.000000  -0.119379   0.041196   0.008470   0.471743   0.487815
    26  H    0.000000  -0.054515   0.433591   0.005681  -0.026936  -0.000829
    27  H    0.000000  -0.067190   0.019613   0.429246  -0.006188  -0.038611
    28  H    0.000000   0.000906  -0.018428   0.002699   0.396456   0.002842
    29  H    0.000000   0.012695  -0.003961  -0.036908   0.010292   0.417512
    30  H    0.000000  -0.001167   0.009630   0.006526  -0.032617  -0.030962
              25         26         27         28         29         30
     1  C   -0.000214  -0.006238  -0.000379  -0.000036   0.000004   0.000002
     2  H    0.000179   0.001514   0.000236  -0.000006  -0.000002   0.000000
     3  H   -0.000221  -0.004571  -0.000066   0.000052   0.000001  -0.000001
     4  C   -0.000560   0.000820   0.000137   0.000128   0.000020  -0.000005
     5  H    0.001058   0.009852   0.000413  -0.000076  -0.000005   0.000004
     6  H   -0.000056  -0.000635  -0.000224   0.000001   0.000000   0.000000
     7  O    0.000010   0.002463   0.000000  -0.000004   0.000000   0.000000
     8  O   -0.000693  -0.006532   0.011381  -0.000171  -0.000195   0.000015
     9  C    0.000006   0.000143   0.000008   0.000000   0.000000   0.000000
    10  C   -0.000002   0.000052  -0.000016   0.000000   0.000000   0.000000
    11  C    0.000000   0.000080   0.000000   0.000000   0.000000   0.000000
    12  C    0.000000  -0.000013  -0.000001   0.000000   0.000000   0.000000
    13  C    0.000000  -0.000006   0.000000   0.000000   0.000000   0.000000
    14  C    0.000000   0.000002   0.000000   0.000000   0.000000   0.000000
    15  H    0.000002   0.000060   0.000025   0.000000   0.000000   0.000000
    16  H    0.000000   0.000025   0.000000   0.000000   0.000000   0.000000
    17  H    0.000000   0.000000   0.000000   0.000000   0.000000   0.000000
    18  H    0.000000   0.000000   0.000000   0.000000   0.000000   0.000000
    19  H    0.000000   0.000000   0.000000   0.000000   0.000000   0.000000
    20  C   -0.119379  -0.054515  -0.067190   0.000906   0.012695  -0.001167
    21  C    0.041196   0.433591   0.019613  -0.018428  -0.003961   0.009630
    22  C    0.008470   0.005681   0.429246   0.002699  -0.036908   0.006526
    23  C    0.471743  -0.026936  -0.006188   0.396456   0.010292  -0.032617
    24  C    0.487815  -0.000829  -0.038611   0.002842   0.417512  -0.030962
    25  C    4.868632   0.007267   0.013009  -0.020629  -0.038394   0.411957
    26  H    0.007267   0.542322  -0.000184  -0.003680   0.000056  -0.000353
    27  H    0.013009  -0.000184   0.542633   0.000103  -0.007713  -0.000290
    28  H   -0.020629  -0.003680   0.000103   0.528322  -0.000508  -0.003723
    29  H   -0.038394   0.000056  -0.007713  -0.000508   0.538234  -0.004206
    30  H    0.411957  -0.000353  -0.000290  -0.003723  -0.004206   0.530631
 Mulliken charges:
               1
     1  C   -0.003779
     2  H    0.080295
     3  H    0.110796
     4  C   -0.003779
     5  H    0.080295
     6  H    0.110796
     7  O   -0.246757
     8  O   -0.246757
     9  C    0.259216
    10  C   -0.169489
    11  C   -0.203017
    12  C   -0.153654
    13  C   -0.090419
    14  C   -0.131199
    15  H    0.100563
    16  H    0.104057
    17  H    0.115751
    18  H    0.113080
    19  H    0.114557
    20  C    0.259216
    21  C   -0.169489
    22  C   -0.203017
    23  C   -0.153654
    24  C   -0.090419
    25  C   -0.131199
    26  H    0.100563
    27  H    0.104057
    28  H    0.115751
    29  H    0.113080
    30  H    0.114557
 Sum of Mulliken charges =   0.00000
 Mulliken charges with hydrogens summed into heavy atoms:
               1
     1  C    0.187312
     4  C    0.187312
     7  O   -0.246757
     8  O   -0.246757
     9  C    0.259216
    10  C   -0.068926
    11  C   -0.098960
    12  C   -0.037904
    13  C    0.022660
    14  C   -0.016642
    20  C    0.259216
    21  C   -0.068926
    22  C   -0.098960
    23  C   -0.037904
    24  C    0.022660
    25  C   -0.016642
 Electronic spatial extent (au):  <R**2>=           5750.3049
 Charge=              0.0000 electrons
 Dipole moment (field-independent basis, Debye):
    X=              0.0000    Y=              0.0000    Z=              0.0000  Tot=              0.0000
 Quadrupole moment (field-independent basis, Debye-Ang):
   XX=            -88.3570   YY=            -98.5593   ZZ=            -88.0618
   XY=              2.2235   XZ=             -2.1527   YZ=              3.4115
 Traceless Quadrupole moment (field-independent basis, Debye-Ang):
   XX=              3.3024   YY=             -6.8999   ZZ=              3.5975
   XY=              2.2235   XZ=             -2.1527   YZ=              3.4115
 Octapole moment (field-independent basis, Debye-Ang**2):
  XXX=              0.0000  YYY=              0.0000  ZZZ=              0.0000  XYY=              0.0000
  XXY=              0.0000  XXZ=              0.0000  XZZ=              0.0000  YZZ=              0.0000
  YYZ=              0.0000  XYZ=              0.0000
 Hexadecapole moment (field-independent basis, Debye-Ang**3):
 XXXX=           -641.3565 YYYY=           -202.6152 ZZZZ=          -6570.0749 XXXY=              4.2420
 XXXZ=             45.9839 YYYX=             -9.2796 YYYZ=           -104.5039 ZZZX=             74.8355
 ZZZY=             76.6384 XXYY=           -157.1050 XXZZ=          -1181.6931 YYZZ=          -1347.4928
 XXYZ=            -21.5724 YYXZ=             28.0371 ZZXY=             25.3401
 N-N= 9.886055112149D+02 E-N=-3.588273340240D+03  KE= 6.885814855645D+02
 Symmetry AG   KE= 3.459697743719D+02
 Symmetry AU   KE= 3.426117111926D+02
 No NMR shielding tensors so no spin-rotation constants.
 Leave Link  601 at Fri May 17 10:22:52 2024, MaxMem=  6291456000 cpu:        61.7
 (Enter /home/madghost/g09/l607.exe)
 ******************************Gaussian NBO Version 3.1******************************
             N A T U R A L   A T O M I C   O R B I T A L   A N D
          N A T U R A L   B O N D   O R B I T A L   A N A L Y S I S
 ******************************Gaussian NBO Version 3.1******************************

       /RESON  / : Allow strongly delocalized NBO set
       /E2PERT / : Analyze NBO Fock matrix
                   Print threshold set to  0.05
       /PLOT   / : Write information for the orbital plotter
       /ARCHIVE/ : Write the archive file to LFN 47
       /BNDIDX / : Print bond indices based on the NAO density matrix
       /FILE   / : Set to JOB34                                               

 Analyzing the SCF density

 Job title: c2h                                                             

 Storage needed:   1440014 in NPA,   1918463 in NBO,   1440952 in NLMO (6291451200 available)


 NATURAL POPULATIONS:  Natural atomic orbital occupancies 
                                                          
   NAO  Atom  No  lang   Type(AO)    Occupancy      Energy
 ----------------------------------------------------------
     1    C    1  S      Cor( 1S)     1.99923     -10.15689
     2    C    1  S      Val( 2S)     1.04229      -0.30715
     3    C    1  S      Ryd( 3S)     0.00232       1.39205
     4    C    1  S      Ryd( 4S)     0.00037       2.05002
     5    C    1  S      Ryd( 5S)     0.00000      21.77522
     6    C    1  px     Val( 2p)     1.07119      -0.11771
     7    C    1  px     Ryd( 3p)     0.00341       1.18952
     8    C    1  px     Ryd( 4p)     0.00034       1.68607
     9    C    1  py     Val( 2p)     1.09103      -0.12151
    10    C    1  py     Ryd( 3p)     0.00053       0.99128
    11    C    1  py     Ryd( 4p)     0.00040       1.55333
    12    C    1  pz     Val( 2p)     0.88819      -0.10856
    13    C    1  pz     Ryd( 3p)     0.00262       1.20503
    14    C    1  pz     Ryd( 4p)     0.00023       1.53827
    15    C    1  dxy    Ryd( 3d)     0.00160       1.81715
    16    C    1  dxy    Ryd( 4d)     0.00019       3.38444
    17    C    1  dxz    Ryd( 3d)     0.00138       1.96796
    18    C    1  dxz    Ryd( 4d)     0.00033       3.59138
    19    C    1  dyz    Ryd( 3d)     0.00166       1.71647
    20    C    1  dyz    Ryd( 4d)     0.00012       3.22256
    21    C    1  dx2y2  Ryd( 3d)     0.00063       1.66107
    22    C    1  dx2y2  Ryd( 4d)     0.00022       3.13397
    23    C    1  dz2    Ryd( 3d)     0.00103       1.72085
    24    C    1  dz2    Ryd( 4d)     0.00022       3.23607
    25    C    1  f(0)   Ryd( 4f)     0.00002       3.99478
    26    C    1  f(C1)  Ryd( 4f)     0.00009       3.90537
    27    C    1  f(S1)  Ryd( 4f)     0.00003       3.85449
    28    C    1  f(C2)  Ryd( 4f)     0.00004       3.91994
    29    C    1  f(S2)  Ryd( 4f)     0.00008       4.03757
    30    C    1  f(C3)  Ryd( 4f)     0.00004       3.80327
    31    C    1  f(S3)  Ryd( 4f)     0.00005       3.86408

    32    H    2  S      Val( 1S)     0.81625      -0.01543
    33    H    2  S      Ryd( 2S)     0.00179       0.56282
    34    H    2  S      Ryd( 3S)     0.00019       2.27998
    35    H    2  px     Ryd( 2p)     0.00012       3.13791
    36    H    2  px     Ryd( 3p)     0.00013       3.56473
    37    H    2  py     Ryd( 2p)     0.00024       3.15553
    38    H    2  py     Ryd( 3p)     0.00008       3.61684
    39    H    2  pz     Ryd( 2p)     0.00022       2.58902
    40    H    2  pz     Ryd( 3p)     0.00008       3.54768
    41    H    2  dxy    Ryd( 3d)     0.00002       4.40745
    42    H    2  dxz    Ryd( 3d)     0.00004       3.99644
    43    H    2  dyz    Ryd( 3d)     0.00001       3.91282
    44    H    2  dx2y2  Ryd( 3d)     0.00004       4.10581
    45    H    2  dz2    Ryd( 3d)     0.00002       3.85086

    46    H    3  S      Val( 1S)     0.79486      -0.00170
    47    H    3  S      Ryd( 2S)     0.00072       1.05701
    48    H    3  S      Ryd( 3S)     0.00013       1.63411
    49    H    3  px     Ryd( 3p)     0.00023       4.12400
    50    H    3  px     Ryd( 2p)     0.00014       2.47715
    51    H    3  py     Ryd( 3p)     0.00019       4.03457
    52    H    3  py     Ryd( 2p)     0.00018       2.31449
    53    H    3  pz     Ryd( 3p)     0.00024       4.18247
    54    H    3  pz     Ryd( 2p)     0.00014       2.57256
    55    H    3  dxy    Ryd( 3d)     0.00005       4.03323
    56    H    3  dxz    Ryd( 3d)     0.00007       4.25643
    57    H    3  dyz    Ryd( 3d)     0.00004       4.02770
    58    H    3  dx2y2  Ryd( 3d)     0.00002       3.92049
    59    H    3  dz2    Ryd( 3d)     0.00003       4.05113

    60    C    4  S      Cor( 1S)     1.99923     -10.15689
    61    C    4  S      Val( 2S)     1.04229      -0.30715
    62    C    4  S      Ryd( 3S)     0.00232       1.39205
    63    C    4  S      Ryd( 4S)     0.00037       2.05002
    64    C    4  S      Ryd( 5S)     0.00000      21.77522
    65    C    4  px     Val( 2p)     1.07119      -0.11771
    66    C    4  px     Ryd( 3p)     0.00341       1.18952
    67    C    4  px     Ryd( 4p)     0.00034       1.68607
    68    C    4  py     Val( 2p)     1.09103      -0.12151
    69    C    4  py     Ryd( 3p)     0.00053       0.99128
    70    C    4  py     Ryd( 4p)     0.00040       1.55333
    71    C    4  pz     Val( 2p)     0.88819      -0.10856
    72    C    4  pz     Ryd( 3p)     0.00262       1.20503
    73    C    4  pz     Ryd( 4p)     0.00023       1.53827
    74    C    4  dxy    Ryd( 3d)     0.00160       1.81715
    75    C    4  dxy    Ryd( 4d)     0.00019       3.38444
    76    C    4  dxz    Ryd( 3d)     0.00138       1.96796
    77    C    4  dxz    Ryd( 4d)     0.00033       3.59138
    78    C    4  dyz    Ryd( 3d)     0.00166       1.71647
[...]
   20      25      36    -0.0033290      -0.0157420
   20      25      57     0.0125924       0.0400012
   20      26      26    -0.0027010      -0.1111918
   20      26      28     0.0068064       0.0168561
   20      27      24    -0.0024154      -0.1231023
   20      27      31     0.0071248       0.0284408
   20      28      24     0.0023933       0.0623872
   20      28      34    -0.0035628      -0.0035776
   20      29      26     0.0024972       0.0594742
   20      29      36    -0.0033290      -0.0050134
   20      30      27     0.0026738       0.0530431
   20      30      29     0.0026137       0.0607135
   21      22      24     0.0041896       0.1506594
   21      22      25     0.0701172       0.1154060
   21      22      26     0.0038665       0.2219260
   21      22      28    -0.0034838      -0.0617378
   21      22      30    -0.0393001      -0.0732705
   21      22      31    -0.0038057      -0.0560561
   21      22      33    -0.0506716      -0.0865358
   21      22      37    -0.0032160      -0.0836253
   21      22      56    -0.0025808      -0.3593289
   21      22      57     0.0186201       0.0681240
   21      23      24     0.0044597       0.2540503
   21      23      25     0.1567860       0.4176215
   21      23      27     0.9761412       0.8048936
   21      23      28     0.0056517       0.1652906
   21      23      30     0.0393001       0.3305463
   21      23      32     0.0041407       0.3071968
   21      23      33     0.0623938       0.4366772
   21      23      34     0.0059616       0.1860062
   21      23      37    -0.0034819      -0.4273249
   21      24      25    -0.0655592      -0.0437835
   21      24      26     0.0038665       0.1489002
   21      24      30    -0.0393001      -0.0400144
   21      24      31    -0.0038057      -0.0459215
   21      24      32     0.0040286       0.2157257
   21      24      33     0.0623938       0.0789452
   21      24      34    -0.0031952      -0.0580594
   21      24      37    -0.0034819      -0.0511323
   21      25      25    -0.0526201      -0.0698920
   21      25      27     0.0039278       0.2224300
   21      25      28    -0.0030762      -0.0600699
   21      25      30    -0.0393001      -0.0849147
   21      25      31    -0.0033021      -0.0643114
   21      25      32     0.0041407       0.2159564
   21      25      33     0.0623938       0.1202360
   21      25      34     0.0059256       0.3193400
   21      25      37    -0.0034819      -0.0671026
   21      25      57    -0.0125924      -0.0592962
   21      26      26    -0.0027010      -0.4919208
   21      26      28     0.7695029       0.8137222
   21      26      32    -0.0027130      -0.5092343
   21      27      24    -0.0024154      -0.0077955
   21      27      31    -0.0038057      -0.0014961
   21      28      24    -0.0023933      -0.1220544
   21      28      34     0.0059616       0.0470675
   21      29      26     0.0024972       0.0490424
   21      29      32     0.0027638       0.0680023
   21      30      27     0.0026738       0.0709213
   21      30      37    -0.0034819      -0.0028213
   22      23      24     0.0041896       0.1212879
   22      23      25     0.0701172       0.0735214
   22      23      28    -0.0034838      -0.0477237
   22      23      30    -0.0660552      -0.0413740
   22      23      33    -0.0506716      -0.0382460
   22      23      35     0.0041288       0.2248032
   22      23      36    -0.0030591      -0.0550938
   22      23      37    -0.0032160      -0.0455167
   22      24      25    -0.0655592      -0.3745379
   22      24      26     0.0039126       0.2750794
   22      24      29     0.9811627       0.8091465
   22      24      30     0.7706721       0.4055646
   22      24      31     0.0061950       0.1229407
   22      24      33    -0.0506716      -0.3540479
   22      24      35     0.0042892       0.3062914
   22      24      36     0.0060358       0.1910113
   22      24      37    -0.0032160      -0.4092376
   22      25      25    -0.0526201      -0.0796101
   22      25      28    -0.0030762      -0.0691753
   22      25      29     0.0038937       0.2136431
   22      25      30     0.0669959       0.1147735
   22      25      31    -0.0033021      -0.0635156
   22      25      33    -0.0506716      -0.0694531
   22      25      35     0.0042892       0.2062752
   22      25      36     0.0057138       0.3086697
   22      25      37    -0.0032160      -0.0615586
   22      25      57    -0.0125924      -0.0579046
   22      26      26     0.0027010       0.0030113
   22      26      28     0.0034838       0.0022217
   22      27      24    -0.0024154      -0.4585288
   22      27      31     0.7637101       0.8106328
   22      27      35    -0.0028528      -0.5254748
   22      28      24     0.0023933       0.0469485
   22      28      35     0.0028743       0.0708154
   22      29      26    -0.0024972      -0.1160470
   22      29      36     0.0060358       0.0472999
   22      30      29     0.0026137       0.0670129
   22      30      37    -0.0032160      -0.0009305
   23      24      25    -0.0655592      -0.0890433
   23      24      30    -0.0660552      -0.0793732
   23      24      32     0.0040286       0.2330990
   23      24      33     0.1491619       0.1153044
   23      24      34    -0.0031952      -0.0737033
   23      24      35     0.0041288       0.2351438
   23      24      36    -0.0030591      -0.0739621
   23      24      37     0.0058213       0.2836941
   23      25      25    -0.0526201      -0.3544403
   23      25      27     0.0039278       0.3165181
   23      25      28    -0.0030762      -0.3901157
   23      25      30    -0.0660552      -0.3733839
   23      25      32     0.9888798       0.8072221
   23      25      33     0.7638437       0.4076041
   23      25      34     0.0059256       0.1606285
   23      25      35     0.0041288       0.3366434
   23      25      36    -0.0030591      -0.4056182
   23      25      37     0.0062628       0.1455180
   23      26      28     0.0056517       0.0563889
   23      26      32    -0.0027130      -0.1169368
   23      27      24     0.0024154       0.0046413
   23      27      35     0.0028528       0.0205329
   23      28      24    -0.0023933      -0.5417444
   23      28      34     0.7740983       0.8102977
   23      28      35    -0.0028743      -0.5779478
   23      29      32     0.0027638       0.0680493
   23      29      36    -0.0030591      -0.0041431
   23      30      27    -0.0026738      -0.1169821
   23      30      37     0.0062628       0.0206098
   24      25      25     0.0526201       0.3282294
   24      25      29     0.0038937       0.3165450
   24      25      30     0.0669959       0.4297944
   24      25      31    -0.0033021      -0.4155910
   24      25      32     0.0040286       0.3291721
   24      25      33     0.1491619       0.4193616
   24      25      34    -0.0031952      -0.4156920
   24      25      35     0.9902745       0.8063672
   24      25      36     0.0057138       0.1631127
   24      25      37     0.0058213       0.1381022
   24      26      26     0.0027010       0.0124991
   24      26      32     0.0027130       0.0223605
   24      27      31     0.0061950       0.0180402
   24      27      35    -0.0028528      -0.1155080
   24      28      34    -0.0031952      -0.0066358
   24      28      35     0.0028743       0.0696168
   24      29      26    -0.0024972      -0.5641065
   24      29      32    -0.0027638      -0.5748727
   24      29      36     0.7735914       0.8110530
   24      30      29    -0.0026137      -0.1162818
   24      30      37     0.0058213       0.0123974
   25      26      28     0.0030762       0.0022143
   25      26      32     0.0027130       0.0115419
   25      27      31     0.0033021       0.0003381
   25      27      35     0.0028528       0.0082662
   25      28      34     0.0059256       0.0221438
   25      28      35    -0.0028743      -0.1126814
   25      29      32    -0.0027638      -0.1120780
   25      29      36     0.0057138       0.0247331
   25      30      27    -0.0026738      -0.5849391
   25      30      29    -0.0026137      -0.5843436
   25      30      37     0.7728390       0.8110047
   26      29      26    -0.0024972      -0.0008614
   26      29      32    -0.0027130      -0.0005617
   27      28      24    -0.0023933      -0.0016117
   27      28      35    -0.0028528      -0.0007444


 Atom-Atom Net Linear NLMO/NPA Bond Orders:                                    

     Atom    1       2       3       4       5       6       7       8       9
     ---- ------  ------  ------  ------  ------  ------  ------  ------  ------
   1.  C  0.0000  0.7820  0.7726  0.9870 -0.0086 -0.0036  0.6928 -0.0107  0.0188
   2.  H  0.7820  0.0000 -0.0039 -0.0086  0.0083 -0.0012 -0.0148  0.0022 -0.0095
   3.  H  0.7726 -0.0039  0.0000 -0.0036 -0.0012 -0.0073 -0.0112  0.0026  0.0063
   4.  C  0.9870 -0.0086 -0.0036  0.0000  0.7820  0.7726 -0.0107  0.6928 -0.0093
   5.  H -0.0086  0.0083 -0.0012  0.7820  0.0000 -0.0039  0.0022 -0.0148  0.0008
   6.  H -0.0036 -0.0012 -0.0073  0.7726 -0.0039  0.0000  0.0026 -0.0112 -0.0054
   7.  O  0.6928 -0.0148 -0.0112 -0.0107  0.0022  0.0026  0.0000  0.0055  0.7453
   8.  O -0.0107  0.0022  0.0026  0.6928 -0.0148 -0.0112  0.0055  0.0000  0.0013
   9.  C  0.0188 -0.0095  0.0063 -0.0093  0.0008 -0.0054  0.7453  0.0013  0.0000
  10.  C -0.0221  0.0107  0.0032  0.0087 -0.0014 -0.0005 -0.0392 -0.0015  1.5526
  11.  C -0.0034  0.0048  0.0001  0.0155 -0.0004 -0.0003 -0.0240 -0.0023  1.2347
  12.  C  0.0000  0.0006 -0.0016  0.0009 -0.0001 -0.0009  0.0057 -0.0003  0.0322
  13.  C -0.0087  0.0013 -0.0027  0.0009  0.0002  0.0012  0.0089 -0.0017  0.0250
  14.  C  0.0123 -0.0084  0.0015 -0.0107 -0.0003  0.0005  0.0220  0.0013 -0.0463
  15.  H -0.0047  0.0021  0.0006 -0.0011 -0.0009 -0.0001  0.0012  0.0006  0.0025
  16.  H  0.0018  0.0004  0.0008  0.0001 -0.0003 -0.0001 -0.0003  0.0000  0.0032
  17.  H  0.0014  0.0002  0.0001  0.0001  0.0003  0.0002 -0.0028  0.0002  0.0009
  18.  H -0.0019  0.0002  0.0003  0.0000 -0.0001  0.0000  0.0012  0.0003  0.0012
  19.  H  0.0006  0.0000 -0.0002  0.0002  0.0000  0.0002  0.0057  0.0000  0.0070
  20.  C -0.0093  0.0008 -0.0054  0.0188 -0.0095  0.0063  0.0013  0.7453  0.0002
  21.  C  0.0087 -0.0014 -0.0005 -0.0221  0.0107  0.0032 -0.0015 -0.0392  0.0000
  22.  C  0.0155 -0.0004 -0.0003 -0.0034  0.0048  0.0001 -0.0023 -0.0240  0.0008
  23.  C  0.0009 -0.0001 -0.0009  0.0000  0.0006 -0.0016 -0.0003  0.0057 -0.0004
  24.  C  0.0009  0.0002  0.0012 -0.0087  0.0013 -0.0027 -0.0017  0.0089  0.0005
  25.  C -0.0107 -0.0003  0.0005  0.0123 -0.0084  0.0015  0.0013  0.0220  0.0002
  26.  H -0.0011 -0.0009 -0.0001 -0.0047  0.0021  0.0006  0.0006  0.0012 -0.0001
  27.  H  0.0001 -0.0003 -0.0001  0.0018  0.0004  0.0008  0.0000 -0.0003 -0.0001
  28.  H  0.0001  0.0003  0.0002  0.0014  0.0002  0.0001  0.0002 -0.0028  0.0001
  29.  H  0.0000 -0.0001  0.0000 -0.0019  0.0002  0.0003  0.0003  0.0012 -0.0001
  30.  H  0.0002  0.0000  0.0002  0.0006  0.0000 -0.0002  0.0000  0.0057  0.0001

     Atom   10      11      12      13      14      15      16      17      18
     ---- ------  ------  ------  ------  ------  ------  ------  ------  ------
   1.  C -0.0221 -0.0034  0.0000 -0.0087  0.0123 -0.0047  0.0018  0.0014 -0.0019
   2.  H  0.0107  0.0048  0.0006  0.0013 -0.0084  0.0021  0.0004  0.0002  0.0002
   3.  H  0.0032  0.0001 -0.0016 -0.0027  0.0015  0.0006  0.0008  0.0001  0.0003
   4.  C  0.0087  0.0155  0.0009  0.0009 -0.0107 -0.0011  0.0001  0.0001  0.0000
   5.  H -0.0014 -0.0004 -0.0001  0.0002 -0.0003 -0.0009 -0.0003  0.0003 -0.0001
   6.  H -0.0005 -0.0003 -0.0009  0.0012  0.0005 -0.0001 -0.0001  0.0002  0.0000
   7.  O -0.0392 -0.0240  0.0057  0.0089  0.0220  0.0012 -0.0003 -0.0028  0.0012
   8.  O -0.0015 -0.0023 -0.0003 -0.0017  0.0013  0.0006  0.0000  0.0002  0.0003
   9.  C  1.5526  1.2347  0.0322  0.0250 -0.0463  0.0025  0.0032  0.0009  0.0012
  10.  C  0.0000 -0.0063  1.2478 -0.0444 -0.0395  0.7622 -0.0042  0.0025  0.0069
  11.  C -0.0063  0.0000 -0.0482  1.6513 -0.0462  0.0088  0.7572  0.0073  0.0013
  12.  C  1.2478 -0.0482  0.0000  0.0248  1.6463  0.0022  0.0070  0.7673  0.0014
  13.  C -0.0444  1.6513  0.0248  0.0000  1.2691  0.0065  0.0028  0.0011  0.7669
  14.  C -0.0395 -0.0462  1.6463  1.2691  0.0000  0.0084  0.0088  0.0019  0.0009
  15.  H  0.7622  0.0088  0.0022  0.0065  0.0084  0.0000  0.0008 -0.0027 -0.0056
  16.  H -0.0042  0.7572  0.0070  0.0028  0.0088  0.0008  0.0000 -0.0057 -0.0019
  17.  H  0.0025  0.0073  0.7673  0.0011  0.0019 -0.0027 -0.0057  0.0000 -0.0027
  18.  H  0.0069  0.0013  0.0014  0.7669  0.0009 -0.0056 -0.0019 -0.0027  0.0000
  19.  H  0.0010  0.0011  0.0016  0.0013  0.7662 -0.0011 -0.0009 -0.0032 -0.0034
  20.  C  0.0000  0.0008 -0.0004  0.0005  0.0002 -0.0001 -0.0001  0.0001 -0.0001
  21.  C  0.0006  0.0005  0.0001  0.0000  0.0004  0.0005 -0.0002  0.0000  0.0001
  22.  C  0.0005  0.0005  0.0004  0.0002  0.0003  0.0004 -0.0001 -0.0001  0.0001
  23.  C  0.0001  0.0004  0.0003  0.0000  0.0003  0.0001 -0.0001  0.0001  0.0000
  24.  C  0.0000  0.0002  0.0000  0.0000  0.0001  0.0001  0.0001  0.0000  0.0000
  25.  C  0.0004  0.0003  0.0003  0.0001  0.0003  0.0001 -0.0001  0.0000  0.0000
  26.  H  0.0005  0.0004  0.0001  0.0001  0.0001  0.0004  0.0000  0.0000  0.0000
  27.  H -0.0002 -0.0001 -0.0001  0.0001 -0.0001  0.0000  0.0000  0.0000  0.0000
  28.  H  0.0000 -0.0001  0.0001  0.0000  0.0000  0.0000  0.0000  0.0000  0.0000
  29.  H  0.0001  0.0001  0.0000  0.0000  0.0000  0.0000  0.0000  0.0000  0.0000
  30.  H  0.0000  0.0000  0.0000  0.0000  0.0000  0.0000  0.0000  0.0000  0.0000

     Atom   19      20      21      22      23      24      25      26      27
     ---- ------  ------  ------  ------  ------  ------  ------  ------  ------
   1.  C  0.0006 -0.0093  0.0087  0.0155  0.0009  0.0009 -0.0107 -0.0011  0.0001
   2.  H  0.0000  0.0008 -0.0014 -0.0004 -0.0001  0.0002 -0.0003 -0.0009 -0.0003
   3.  H -0.0002 -0.0054 -0.0005 -0.0003 -0.0009  0.0012  0.0005 -0.0001 -0.0001
   4.  C  0.0002  0.0188 -0.0221 -0.0034  0.0000 -0.0087  0.0123 -0.0047  0.0018
   5.  H  0.0000 -0.0095  0.0107  0.0048  0.0006  0.0013 -0.0084  0.0021  0.0004
   6.  H  0.0002  0.0063  0.0032  0.0001 -0.0016 -0.0027  0.0015  0.0006  0.0008
   7.  O  0.0057  0.0013 -0.0015 -0.0023 -0.0003 -0.0017  0.0013  0.0006  0.0000
   8.  O  0.0000  0.7453 -0.0392 -0.0240  0.0057  0.0089  0.0220  0.0012 -0.0003
   9.  C  0.0070  0.0002  0.0000  0.0008 -0.0004  0.0005  0.0002 -0.0001 -0.0001
  10.  C  0.0010  0.0000  0.0006  0.0005  0.0001  0.0000  0.0004  0.0005 -0.0002
  11.  C  0.0011  0.0008  0.0005  0.0005  0.0004  0.0002  0.0003  0.0004 -0.0001
  12.  C  0.0016 -0.0004  0.0001  0.0004  0.0003  0.0000  0.0003  0.0001 -0.0001
  13.  C  0.0013  0.0005  0.0000  0.0002  0.0000  0.0000  0.0001  0.0001  0.0001
  14.  C  0.7662  0.0002  0.0004  0.0003  0.0003  0.0001  0.0003  0.0001 -0.0001
  15.  H -0.0011 -0.0001  0.0005  0.0004  0.0001  0.0001  0.0001  0.0004  0.0000
  16.  H -0.0009 -0.0001 -0.0002 -0.0001 -0.0001  0.0001 -0.0001  0.0000  0.0000
  17.  H -0.0032  0.0001  0.0000 -0.0001  0.0001  0.0000  0.0000  0.0000  0.0000
  18.  H -0.0034 -0.0001  0.0001  0.0001  0.0000  0.0000  0.0000  0.0000  0.0000
  19.  H  0.0000  0.0001  0.0000  0.0000  0.0000  0.0000  0.0000  0.0000  0.0000
  20.  C  0.0001  0.0000  1.5526  1.2347  0.0322  0.0250 -0.0463  0.0025  0.0032
  21.  C  0.0000  1.5526  0.0000 -0.0063  1.2478 -0.0444 -0.0395  0.7622 -0.0042
  22.  C  0.0000  1.2347 -0.0063  0.0000 -0.0482  1.6513 -0.0462  0.0088  0.7572
  23.  C  0.0000  0.0322  1.2478 -0.0482  0.0000  0.0248  1.6463  0.0022  0.0070
  24.  C  0.0000  0.0250 -0.0444  1.6513  0.0248  0.0000  1.2691  0.0065  0.0028
  25.  C  0.0000 -0.0463 -0.0395 -0.0462  1.6463  1.2691  0.0000  0.0084  0.0088
  26.  H  0.0000  0.0025  0.7622  0.0088  0.0022  0.0065  0.0084  0.0000  0.0008
  27.  H  0.0000  0.0032 -0.0042  0.7572  0.0070  0.0028  0.0088  0.0008  0.0000
  28.  H  0.0000  0.0009  0.0025  0.0073  0.7673  0.0011  0.0019 -0.0027 -0.0057
  29.  H  0.0000  0.0012  0.0069  0.0013  0.0014  0.7669  0.0009 -0.0056 -0.0019
  30.  H  0.0000  0.0070  0.0010  0.0011  0.0016  0.0013  0.7662 -0.0011 -0.0009

     Atom   28      29      30
     ---- ------  ------  ------
   1.  C  0.0001  0.0000  0.0002
   2.  H  0.0003 -0.0001  0.0000
   3.  H  0.0002  0.0000  0.0002
   4.  C  0.0014 -0.0019  0.0006
   5.  H  0.0002  0.0002  0.0000
   6.  H  0.0001  0.0003 -0.0002
   7.  O  0.0002  0.0003  0.0000
   8.  O -0.0028  0.0012  0.0057
   9.  C  0.0001 -0.0001  0.0001
  10.  C  0.0000  0.0001  0.0000
  11.  C -0.0001  0.0001  0.0000
  12.  C  0.0001  0.0000  0.0000
  13.  C  0.0000  0.0000  0.0000
  14.  C  0.0000  0.0000  0.0000
  15.  H  0.0000  0.0000  0.0000
  16.  H  0.0000  0.0000  0.0000
  17.  H  0.0000  0.0000  0.0000
  18.  H  0.0000  0.0000  0.0000
  19.  H  0.0000  0.0000  0.0000
  20.  C  0.0009  0.0012  0.0070
  21.  C  0.0025  0.0069  0.0010
  22.  C  0.0073  0.0013  0.0011
  23.  C  0.7673  0.0014  0.0016
  24.  C  0.0011  0.7669  0.0013
  25.  C  0.0019  0.0009  0.7662
  26.  H -0.0027 -0.0056 -0.0011
  27.  H -0.0057 -0.0019 -0.0009
  28.  H  0.0000 -0.0027 -0.0032
  29.  H -0.0027  0.0000 -0.0034
  30.  H -0.0032 -0.0034  0.0000


 Linear NLMO/NPA Bond Orders, Totals by Atom:                                  

     Atom    1
     ---- ------
   1.  C  3.2110
   2.  H  0.7643
   3.  H  0.7513
   4.  C  3.2110
   5.  H  0.7643
   6.  H  0.7513
   7.  O  1.3880
   8.  O  1.3880
   9.  C  3.5627
  10.  C  3.4383
  11.  C  3.5539
  12.  C  3.6878
  13.  C  3.7049
  14.  C  3.5896
  15.  H  0.7811
  16.  H  0.7690
  17.  H  0.7665
  18.  H  0.7651
  19.  H  0.7760
  20.  C  3.5627
  21.  C  3.4383
  22.  C  3.5539
  23.  C  3.6878
  24.  C  3.7049
  25.  C  3.5896
  26.  H  0.7811
  27.  H  0.7690
  28.  H  0.7665
  29.  H  0.7651
  30.  H  0.7760
 Leave Link  607 at Fri May 17 10:23:20 2024, MaxMem=  6291456000 cpu:       667.5
 (Enter /home/madghost/g09/l9999.exe)
 1\1\GINC-NODE-6\SP\RPBE1PBE\Gen\C14H14O2\NATALYA\17-May-2024\0\\#P PBE
 1PBE/GEN pop=nboread\\c2h\\0,1\C,0,-0.293388,0.633967,-0.300512\H,0,0.
 501387,1.355919,-0.51238\H,0,-0.982895,1.103087,0.402386\C,0,0.293388,
 -0.633967,0.300512\H,0,-0.501387,-1.355919,0.51238\H,0,0.982895,-1.103
 087,-0.402386\O,0,-1.056329,0.345601,-1.449537\O,0,1.056329,-0.345601,
 1.449537\C,0,-0.423813,0.143786,-2.634069\C,0,0.94885,0.251332,-2.8303
 78\C,0,-1.250841,-0.180694,-3.707074\C,0,1.477666,0.03633,-4.097189\C,
 0,-0.709696,-0.392665,-4.960374\C,0,0.660547,-0.285822,-5.166247\H,0,1
 .615539,0.498108,-2.014941\H,0,-2.317223,-0.257568,-3.532241\H,0,2.548
 995,0.12219,-4.239339\H,0,-1.365482,-0.64349,-5.786352\H,0,1.083284,-0
 .453396,-6.14916\C,0,0.423813,-0.143786,2.634069\C,0,-0.94885,-0.25133
 2,2.830378\C,0,1.250841,0.180694,3.707074\C,0,-1.477666,-0.03633,4.097
 189\C,0,0.709696,0.392665,4.960374\C,0,-0.660547,0.285822,5.166247\H,0
 ,-1.615539,-0.498108,2.014941\H,0,2.317223,0.257568,3.532241\H,0,-2.54
 8995,-0.12219,4.239339\H,0,1.365482,0.64349,5.786352\H,0,-1.083284,0.4
 53396,6.14916\\Version=EM64L-G09RevD.01\State=1-AG\HF=-691.792443\RMSD
 =2.704e-09\Dipole=0.,0.,0.\Quadrupole=2.4552292,-5.1299179,2.6746887,1
 .6531193,-1.6004586,2.536362\PG=CI [X(C14H14O2)]\\@


 O WAD SOME POWER THE GIFTIE GIE US       
 TO SEE OURSELS AS OTHERS SEE US.....     
 IT WOULD FRAE MONIE A BLUNDER FREE US,   
                     AND FOOLISH NOTION...
 WHAT AIRS IN DRESS AND GAIT WAD LEA'E US,
                     AND EV'N DEVOTION....
                                          
              (ROBERT BURNS 'TO A LOUSE') 
 Job cpu time:       0 days  1 hours 29 minutes 39.5 seconds.
 File lengths (MBytes):  RWF=    266 Int=      0 D2E=      0 Chk=     18 Scr=      1
 Normal termination of Gaussian 09 at Fri May 17 10:23:21 2024.
