 Entering Gaussian System, Link 0=/home/madghost/g09/g09
 Input=job52.gjf
 Output=job52.log
 Initial command:
 /home/madghost/g09/l1.exe "/scr/natalya/job52/Gau-3912373.inp" -scrdir="/scr/natalya/job52/"
 Entering Link 1 = /home/madghost/g09/l1.exe PID=   3912406.
  
 Copyright (c) 1988,1990,1992,1993,1995,1998,2003,2009,2013,
            Gaussian, Inc.  All Rights Reserved.
  
 This is part of the Gaussian(R) 09 program.  It is based on
 the Gaussian(R) 03 system (copyright 2003, Gaussian, Inc.),
 the Gaussian(R) 98 system (copyright 1998, Gaussian, Inc.),
 the Gaussian(R) 94 system (copyright 1995, Gaussian, Inc.),
 the Gaussian 92(TM) system (copyright 1992, Gaussian, Inc.),
 the Gaussian 90(TM) system (copyright 1990, Gaussian, Inc.),
 the Gaussian 88(TM) system (copyright 1988, Gaussian, Inc.),
 the Gaussian 86(TM) system (copyright 1986, Carnegie Mellon
 University), and the Gaussian 82(TM) system (copyright 1983,
 Carnegie Mellon University). Gaussian is a federally registered
 trademark of Gaussian, Inc.
  
 This software contains proprietary and confidential information,
 including trade secrets, belonging to Gaussian, Inc.
  
 This software is provided under written license and may be
 used, copied, transmitted, or stored only in accord with that
 written license.
  
 The following legend is applicable only to US Government
 contracts under FAR:
  
                    RESTRICTED RIGHTS LEGEND
  
 Use, reproduction and disclosure by the US Government is
 subject to restrictions as set forth in subparagraphs (a)
 and (c) of the Commercial Computer Software - Restricted
 Rights clause in FAR 52.227-19.
  
 Gaussian, Inc.
 340 Quinnipiac St., Bldg. 40, Wallingford CT 06492
  
  
 ---------------------------------------------------------------
 Warning -- This program may not be used in any manner that
 competes with the business of Gaussian, Inc. or will provide
 assistance to any competitor of Gaussian, Inc.  The licensee
 of this program is prohibited from giving any competitor of
 Gaussian, Inc. access to this program.  By using this program,
 the user acknowledges that Gaussian, Inc. is engaged in the
 business of creating and licensing software in the field of
 computational chemistry and represents and warrants to the
 licensee that it is not a competitor of Gaussian, Inc. and that
 it will not use this program in any manner prohibited above.
 ---------------------------------------------------------------
  

 Cite this work as:
 Gaussian 09, Revision D.01,
 M. J. Frisch, G. W. Trucks, H. B. Schlegel, G. E. Scuseria, 
 M. A. Robb, J. R. Cheeseman, G. Scalmani, V. Barone, B. Mennucci, 
 G. A. Petersson, H. Nakatsuji, M. Caricato, X. Li, H. P. Hratchian, 
 A. F. Izmaylov, J. Bloino, G. Zheng, J. L. Sonnenberg, M. Hada, 
 M. Ehara, K. Toyota, R. Fukuda, J. Hasegawa, M. Ishida, T. Nakajima, 
 Y. Honda, O. Kitao, H. Nakai, T. Vreven, J. A. Montgomery, Jr., 
 J. E. Peralta, F. Ogliaro, M. Bearpark, J. J. Heyd, E. Brothers, 
 K. N. Kudin, V. N. Staroverov, T. Keith, R. Kobayashi, J. Normand, 
 K. Raghavachari, A. Rendell, J. C. Burant, S. S. Iyengar, J. Tomasi, 
 M. Cossi, N. Rega, J. M. Millam, M. Klene, J. E. Knox, J. B. Cross, 
 V. Bakken, C. Adamo, J. Jaramillo, R. Gomperts, R. E. Stratmann, 
 O. Yazyev, A. J. Austin, R. Cammi, C. Pomelli, J. W. Ochterski, 
 R. L. Martin, K. Morokuma, V. G. Zakrzewski, G. A. Voth, 
 P. Salvador, J. J. Dannenberg, S. Dapprich, A. D. Daniels, 
 O. Farkas, J. B. Foresman, J. V. Ortiz, J. Cioslowski, 
 and D. J. Fox, Gaussian, Inc., Wallingford CT, 2013.
 
 ******************************************
 Gaussian 09:  EM64L-G09RevD.01 24-Apr-2013
                17-May-2024 
 ******************************************
 %chk=job52
 %nproc=24
 Will use up to   24 processors via shared memory.
 %mem=48000mb
 --------------------------
 #P PBE1PBE/GEN pop=nboread
 --------------------------
 1/38=1/1;
 2/12=2,17=6,18=5,40=1/2;
 3/5=7,11=2,16=1,25=1,30=1,74=-13/1,2,3;
 4//1;
 5/5=2,38=5/2;
 6/7=2,8=2,9=2,10=2,28=1,40=2/1,7;
 99/5=1,9=1/99;
 Leave Link    1 at Fri May 17 10:19:43 2024, MaxMem=  6291456000 cpu:         0.5
 (Enter /home/madghost/g09/l101.exe)
 ---
 c2h
 ---
 Symbolic Z-matrix:
 Charge =  0 Multiplicity = 1
 6                     0.68659   0.32693  -1.60929 
 1                     1.21808   0.04261  -2.51842 
 1                     1.28683  -0.0095   -0.75898 
 6                    -0.68659  -0.32693  -1.60929 
 1                    -1.28683   0.0095   -0.75898 
 1                    -1.21808  -0.04261  -2.51842 
 8                     0.57022   1.73104  -1.65497 
 8                    -0.57022  -1.73104  -1.65497 
 6                     0.30609   2.41863  -0.51425 
 6                     0.3901    1.88931   0.7689 
 6                    -0.04556   3.7555   -0.68641 
 6                     0.1168    2.69984   1.86381 
 6                    -0.31235   4.54968   0.41234 
 6                    -0.23638   4.0274    1.6979 
 1                     0.67803   0.85994   0.93279 
 1                    -0.10243   4.14875  -1.69425 
 1                     0.18667   2.27697   2.85972 
 1                    -0.58518   5.58819   0.26306 
 1                    -0.44877   4.65066   2.55775 
 6                    -0.30609  -2.41863  -0.51425 
 6                    -0.3901   -1.88931   0.7689 
 6                     0.04556  -3.7555   -0.68641 
 6                    -0.1168   -2.69984   1.86381 
 6                     0.31235  -4.54968   0.41234 
 6                     0.23638  -4.0274    1.6979 
 1                    -0.67803  -0.85994   0.93279 
 1                     0.10243  -4.14875  -1.69425 
 1                    -0.18667  -2.27697   2.85972 
 1                     0.58518  -5.58819   0.26306 
 1                     0.44877  -4.65066   2.55775 
 
 NAtoms=     30 NQM=       30 NQMF=       0 NMMI=      0 NMMIF=      0
                NMic=       0 NMicF=      0.
                    Isotopes and Nuclear Properties:
 (Nuclear quadrupole moments (NQMom) in fm**2, nuclear magnetic moments (NMagM)
  in nuclear magnetons)

  Atom         1           2           3           4           5           6           7           8           9          10
 IAtWgt=          12           1           1          12           1           1          16          16          12          12
 AtmWgt=  12.0000000   1.0078250   1.0078250  12.0000000   1.0078250   1.0078250  15.9949146  15.9949146  12.0000000  12.0000000
 NucSpn=           0           1           1           0           1           1           0           0           0           0
 AtZEff=   0.0000000   0.0000000   0.0000000   0.0000000   0.0000000   0.0000000   0.0000000   0.0000000   0.0000000   0.0000000
 NQMom=    0.0000000   0.0000000   0.0000000   0.0000000   0.0000000   0.0000000   0.0000000   0.0000000   0.0000000   0.0000000
 NMagM=    0.0000000   2.7928460   2.7928460   0.0000000   2.7928460   2.7928460   0.0000000   0.0000000   0.0000000   0.0000000
 AtZNuc=   6.0000000   1.0000000   1.0000000   6.0000000   1.0000000   1.0000000   8.0000000   8.0000000   6.0000000   6.0000000

  Atom        11          12          13          14          15          16          17          18          19          20
 IAtWgt=          12          12          12          12           1           1           1           1           1          12
 AtmWgt=  12.0000000  12.0000000  12.0000000  12.0000000   1.0078250   1.0078250   1.0078250   1.0078250   1.0078250  12.0000000
 NucSpn=           0           0           0           0           1           1           1           1           1           0
 AtZEff=   0.0000000   0.0000000   0.0000000   0.0000000   0.0000000   0.0000000   0.0000000   0.0000000   0.0000000   0.0000000
 NQMom=    0.0000000   0.0000000   0.0000000   0.0000000   0.0000000   0.0000000   0.0000000   0.0000000   0.0000000   0.0000000
 NMagM=    0.0000000   0.0000000   0.0000000   0.0000000   2.7928460   2.7928460   2.7928460   2.7928460   2.7928460   0.0000000
 AtZNuc=   6.0000000   6.0000000   6.0000000   6.0000000   1.0000000   1.0000000   1.0000000   1.0000000   1.0000000   6.0000000

  Atom        21          22          23          24          25          26          27          28          29          30
 IAtWgt=          12          12          12          12          12           1           1           1           1           1
 AtmWgt=  12.0000000  12.0000000  12.0000000  12.0000000  12.0000000   1.0078250   1.0078250   1.0078250   1.0078250   1.0078250
 NucSpn=           0           0           0           0           0           1           1           1           1           1
 AtZEff=   0.0000000   0.0000000   0.0000000   0.0000000   0.0000000   0.0000000   0.0000000   0.0000000   0.0000000   0.0000000
 NQMom=    0.0000000   0.0000000   0.0000000   0.0000000   0.0000000   0.0000000   0.0000000   0.0000000   0.0000000   0.0000000
 NMagM=    0.0000000   0.0000000   0.0000000   0.0000000   0.0000000   2.7928460   2.7928460   2.7928460   2.7928460   2.7928460
 AtZNuc=   6.0000000   6.0000000   6.0000000   6.0000000   6.0000000   1.0000000   1.0000000   1.0000000   1.0000000   1.0000000
 Leave Link  101 at Fri May 17 10:19:43 2024, MaxMem=  6291456000 cpu:         3.3
 (Enter /home/madghost/g09/l202.exe)
                          Input orientation:                          
 ---------------------------------------------------------------------
 Center     Atomic      Atomic             Coordinates (Angstroms)
 Number     Number       Type             X           Y           Z
 ---------------------------------------------------------------------
      1          6           0        0.686586    0.326933   -1.609285
      2          1           0        1.218082    0.042612   -2.518421
      3          1           0        1.286831   -0.009496   -0.758976
      4          6           0       -0.686586   -0.326933   -1.609285
      5          1           0       -1.286831    0.009496   -0.758976
      6          1           0       -1.218082   -0.042612   -2.518421
      7          8           0        0.570221    1.731041   -1.654967
      8          8           0       -0.570221   -1.731041   -1.654967
      9          6           0        0.306088    2.418625   -0.514245
     10          6           0        0.390095    1.889313    0.768902
     11          6           0       -0.045561    3.755497   -0.686411
     12          6           0        0.116796    2.699844    1.863811
     13          6           0       -0.312350    4.549684    0.412339
     14          6           0       -0.236375    4.027405    1.697901
     15          1           0        0.678032    0.859938    0.932791
     16          1           0       -0.102428    4.148748   -1.694251
     17          1           0        0.186668    2.276974    2.859724
     18          1           0       -0.585175    5.588190    0.263055
     19          1           0       -0.448768    4.650664    2.557746
     20          6           0       -0.306088   -2.418625   -0.514245
     21          6           0       -0.390095   -1.889313    0.768902
     22          6           0        0.045561   -3.755497   -0.686411
     23          6           0       -0.116796   -2.699844    1.863811
     24          6           0        0.312350   -4.549684    0.412339
     25          6           0        0.236375   -4.027405    1.697901
     26          1           0       -0.678032   -0.859938    0.932791
     27          1           0        0.102428   -4.148748   -1.694251
     28          1           0       -0.186668   -2.276974    2.859724
     29          1           0        0.585175   -5.588190    0.263055
     30          1           0        0.448768   -4.650664    2.557746
 ---------------------------------------------------------------------
                    Distance matrix (angstroms):
                    1          2          3          4          5
     1  C    0.000000
     2  H    1.090805   0.000000
     3  H    1.093848   1.761559   0.000000
     4  C    1.520902   2.142627   2.172134   0.000000
     5  H    2.172134   3.061263   2.573732   1.093848   0.000000
     6  H    2.142627   2.437654   3.061263   1.090805   1.761559
     7  O    1.409662   2.004013   2.084658   2.411827   2.686105
     8  O    2.411827   2.662597   2.686105   1.409662   2.084658
     9  C    2.391457   3.239428   2.630118   3.118109   2.898480
    10  C    2.860893   3.860357   2.596926   3.424436   2.946219
    11  C    3.625298   4.328807   3.994459   4.234247   3.946966
    12  C    4.244734   5.241915   3.948230   4.676451   4.010879
    13  C    4.787114   5.589747   4.971467   5.292297   4.789039
    14  C    5.048052   5.980919   4.965176   5.486386   4.825277
    15  H    2.597367   3.587553   1.997155   3.119775   2.728738
    16  H    3.903336   4.391282   4.482831   4.514441   4.405787
    17  H    4.901492   5.914443   4.419649   5.245469   4.517482
    18  H    5.727465   6.460788   5.990246   6.205209   5.714779
    19  H    6.111287   7.055495   5.977461   6.495935   5.765712
    20  C    3.118109   3.521009   2.898480   2.391457   2.630118
    21  C    3.424436   4.138244   2.946219   2.860893   2.596926
    22  C    4.234247   4.376837   3.946966   3.625298   3.994459
    23  C    4.676451   5.339187   4.010879   4.244734   3.948230
    24  C    5.292297   5.522580   4.789039   4.787114   4.971467
    25  C    5.486386   5.941899   4.825277   5.048052   4.965176
    26  H    3.119775   4.039890   2.728738   2.597367   1.997155
    27  H    4.514441   4.414911   4.405787   3.903336   4.482831
    28  H    5.245469   6.023142   4.517482   4.901492   4.419649
    29  H    6.205209   6.312140   5.714779   5.727465   5.990246
    30  H    6.495935   6.956016   5.765712   6.111287   5.977461
                    6          7          8          9         10
     6  H    0.000000
     7  O    2.662597   0.000000
     8  O    2.004013   3.645082   0.000000
     9  C    3.521009   1.357860   4.391912   0.000000
    10  C    4.138244   2.435700   4.461425   1.390573   0.000000
    11  C    4.376837   2.327168   5.596023   1.393027   2.406320
    12  C    5.339187   3.677767   5.699696   2.402096   1.389417
    13  C    5.522580   3.605195   6.617232   2.404670   2.774552
    14  C    5.941899   4.143140   6.671797   2.788553   2.413906
    15  H    4.039890   2.732569   3.868824   2.159111   1.081379
    16  H    4.414911   2.509842   5.898499   2.133688   3.378572
    17  H    6.023142   4.563726   6.084365   3.379052   2.136165
    18  H    6.312140   4.459972   7.566385   3.383000   3.858591
    19  H    6.956016   5.225848   7.647736   3.871555   3.395396
    20  C    3.239428   4.391912   1.357860   4.875833   4.548568
    21  C    3.860357   4.461425   2.435700   4.548568   3.858330
    22  C    4.328807   5.596023   2.327168   6.182014   5.839565
    23  C    5.241915   5.699696   3.677767   5.659744   4.745116
    24  C    5.589747   6.617232   3.605195   7.029646   6.449330
    25  C    5.980919   6.671797   4.143140   6.815406   5.991179
    26  H    3.587553   3.868824   2.732569   3.716367   2.954003
    27  H    4.391282   5.898499   2.509842   6.675648   6.527485
    28  H    5.914443   6.084365   4.563726   5.803027   4.697035
    29  H    6.460788   7.566385   4.459972   8.049296   7.497132
    30  H    7.055495   7.647736   5.225848   7.709237   6.780465
                   11         12         13         14         15
    11  C    0.000000
    12  C    2.764850   0.000000
    13  C    1.381724   2.390156   0.000000
    14  C    2.407340   1.383717   1.389682   0.000000
    15  H    3.395536   2.137063   3.855639   3.384432   0.000000
    16  H    1.083338   3.848011   2.154655   3.396964   4.280974
    17  H    3.849030   1.084225   3.376970   2.143083   2.441823
    18  H    2.133409   3.376052   1.084073   2.148603   4.939697
    19  H    3.389462   2.146417   2.152110   1.083003   4.275484
    20  C    6.182014   5.659744   7.029646   6.815406   3.716367
    21  C    5.839565   4.745116   6.449330   5.991179   2.954003
    22  C    7.511547   6.941191   8.385188   8.144814   4.931944
    23  C    6.941191   5.404738   7.395990   6.730357   3.764385
    24  C    8.385188   7.395990   9.120787   8.690237   5.446889
    25  C    8.144814   6.730357   8.690237   8.068671   4.966546
    26  H    4.931944   3.764385   5.446889   4.966546   2.190179
    27  H    7.969613   7.717721   8.959491   8.858384   5.685033
    28  H    6.998978   5.084550   7.253189   6.410733   3.781665
    29  H    9.412959   8.454189  10.178621   9.756710   6.483481
    30  H    9.023993   7.390651   9.477789   8.747436   5.749763
                   16         17         18         19         20
    16  H    0.000000
    17  H    4.932119   0.000000
    18  H    2.477112   4.278152   0.000000
    19  H    4.295503   2.475757   2.482573   0.000000
    20  C    6.675648   5.803027   8.049296   7.709237   0.000000
    21  C    6.527485   4.697035   7.497132   6.780465   1.390573
    22  C    7.969613   6.998978   9.412959   9.023993   1.393027
    23  C    7.717721   5.084550   8.454189   7.390651   2.402096
    24  C    8.959491   7.253189  10.178621   9.477789   2.404670
    25  C    8.858384   6.410733   9.756710   8.747436   2.788553
    26  H    5.685033   3.781665   6.483481   5.749763   2.159111
    27  H    8.300024   7.876274   9.955491   9.788409   2.133688
    28  H    7.876274   4.569226   8.292304   6.939168   3.379052
    29  H    9.955491   8.292304  11.237490  10.543660   3.383000
    30  H    9.788409   6.939168  10.543660   9.344532   3.871555
                   21         22         23         24         25
    21  C    0.000000
    22  C    2.406320   0.000000
    23  C    1.389417   2.764850   0.000000
    24  C    2.774552   1.381724   2.390156   0.000000
    25  C    2.413906   2.407340   1.383717   1.389682   0.000000
    26  H    1.081379   3.395536   2.137063   3.855639   3.384432
    27  H    3.378572   1.083338   3.848011   2.154655   3.396964
    28  H    2.136165   3.849030   1.084225   3.376970   2.143083
    29  H    3.858591   2.133409   3.376052   1.084073   2.148603
    30  H    3.395396   3.389462   2.146417   2.152110   1.083003
                   26         27         28         29         30
    26  H    0.000000
    27  H    4.280974   0.000000
    28  H    2.441823   4.932119   0.000000
    29  H    4.939697   2.477112   4.278152   0.000000
    30  H    4.275484   4.295503   2.475757   2.482573   0.000000
 Stoichiometry    C14H14O2
 Framework group  C2[X(C14H14O2)]
 Deg. of freedom    43
 Full point group                 C2      NOp   2
 Largest Abelian subgroup         C2      NOp   2
 Largest concise Abelian subgroup C2      NOp   2
                         Standard orientation:                         
 ---------------------------------------------------------------------
 Center     Atomic      Atomic             Coordinates (Angstroms)
 Number     Number       Type             X           Y           Z
 ---------------------------------------------------------------------
      1          6           0        0.683010    0.334339   -1.609285
      2          1           0        1.217550    0.055782   -2.518421
      3          1           0        1.286858    0.004421   -0.758976
      4          6           0       -0.683010   -0.334339   -1.609285
      5          1           0       -1.286858   -0.004421   -0.758976
      6          1           0       -1.217550   -0.055782   -2.518421
      7          8           0        0.551468    1.737106   -1.654967
      8          8           0       -0.551468   -1.737106   -1.654967
      9          6           0        0.279915    2.421794   -0.514245
     10          6           0        0.369641    1.893421    0.768902
     11          6           0       -0.086171    3.754785   -0.686411
     12          6           0        0.087592    2.700949    1.863811
     13          6           0       -0.361533    4.546040    0.412339
     14          6           0       -0.279915    4.024613    1.697901
     15          1           0        0.668693    0.867220    0.932791
     16          1           0       -0.147288    4.147398   -1.694251
     17          1           0        0.162033    2.278860    2.859724
     18          1           0       -0.645573    5.581535    0.263055
     19          1           0       -0.499035    4.645539    2.557746
     20          6           0       -0.279915   -2.421794   -0.514245
     21          6           0       -0.369641   -1.893421    0.768902
     22          6           0        0.086171   -3.754785   -0.686411
     23          6           0       -0.087592   -2.700949    1.863811
     24          6           0        0.361533   -4.546040    0.412339
     25          6           0        0.279915   -4.024613    1.697901
     26          1           0       -0.668693   -0.867220    0.932791
     27          1           0        0.147288   -4.147398   -1.694251
     28          1           0       -0.162033   -2.278860    2.859724
     29          1           0        0.645573   -5.581535    0.263055
     30          1           0        0.499035   -4.645539    2.557746
 ---------------------------------------------------------------------
 Rotational constants (GHZ):      1.1764688      0.2635913      0.2229566
 Leave Link  202 at Fri May 17 10:19:43 2024, MaxMem=  6291456000 cpu:         0.3
 (Enter /home/madghost/g09/l301.exe)
 General basis read from cards:  (5D, 7F)
 Centers:       2      3      5      6     15     16     17     18     19     26
 Centers:      27     28     29     30
 S 3 1.00
     Exponent=  3.4061341000D+01 Coefficients=  6.0251978000D-03
     Exponent=  5.1235746000D+00 Coefficients=  4.5021094000D-02
     Exponent=  1.1646626000D+00 Coefficients=  2.0189726000D-01
 S 1 1.00
     Exponent=  3.2723041000D-01 Coefficients=  1.0000000000D+00
 S 1 1.00
     Exponent=  1.0307241000D-01 Coefficients=  1.0000000000D+00
 P 1 1.00
     Exponent=  1.4070000000D+00 Coefficients=  1.0000000000D+00
 P 1 1.00
     Exponent=  3.8800000000D-01 Coefficients=  1.0000000000D+00
 D 1 1.00
     Exponent=  1.0570000000D+00 Coefficients=  1.0000000000D+00
 ****
 Centers:       1      4      9     10     11     12     13     14     20     21
 Centers:      22     23     24     25
 S 6 1.00
     Exponent=  1.3575349682D+04 Coefficients=  2.2245814352D-04
     Exponent=  2.0352333680D+03 Coefficients=  1.7232738252D-03
     Exponent=  4.6322562359D+02 Coefficients=  8.9255715314D-03
     Exponent=  1.3120019598D+02 Coefficients=  3.5727984502D-02
     Exponent=  4.2853015891D+01 Coefficients=  1.1076259931D-01
     Exponent=  1.5584185766D+01 Coefficients=  2.4295627626D-01
 S 2 1.00
     Exponent=  6.2067138508D+00 Coefficients=  4.1440263448D-01
     Exponent=  2.5764896527D+00 Coefficients=  2.3744968655D-01
 S 1 1.00
     Exponent=  5.7696339419D-01 Coefficients=  1.0000000000D+00
 S 1 1.00
     Exponent=  2.2972831358D-01 Coefficients=  1.0000000000D+00
 S 1 1.00
     Exponent=  9.5164440028D-02 Coefficients=  1.0000000000D+00
 P 4 1.00
     Exponent=  3.4697232244D+01 Coefficients=  5.3333657805D-03
     Exponent=  7.9582622826D+00 Coefficients=  3.5864109092D-02
     Exponent=  2.3780826883D+00 Coefficients=  1.4215873329D-01
     Exponent=  8.1433208183D-01 Coefficients=  3.4270471845D-01
 P 1 1.00
     Exponent=  2.8887547253D-01 Coefficients=  4.6445822433D-01
 P 1 1.00
     Exponent=  1.0056823671D-01 Coefficients=  2.4955789874D-01
 D 1 1.00
     Exponent=  1.0970000000D+00 Coefficients=  1.0000000000D+00
 D 1 1.00
     Exponent=  3.1800000000D-01 Coefficients=  1.0000000000D+00
 F 1 1.00
     Exponent=  7.6100000000D-01 Coefficients=  1.0000000000D+00
 ****
 Centers:       7      8
 S 6 1.00
     Exponent=  2.7032382631D+04 Coefficients=  2.1726302465D-04
     Exponent=  4.0523871392D+03 Coefficients=  1.6838662199D-03
     Exponent=  9.2232722710D+02 Coefficients=  8.7395616265D-03
     Exponent=  2.6124070989D+02 Coefficients=  3.5239968808D-02
     Exponent=  8.5354641351D+01 Coefficients=  1.1153519115D-01
     Exponent=  3.1035035245D+01 Coefficients=  2.5588953961D-01
 S 2 1.00
     Exponent=  1.2260860728D+01 Coefficients=  3.9768730901D-01
     Exponent=  4.9987076005D+00 Coefficients=  2.4627849430D-01
 S 1 1.00
     Exponent=  1.1703108158D+00 Coefficients=  1.0000000000D+00
 S 1 1.00
     Exponent=  4.6474740994D-01 Coefficients=  1.0000000000D+00
 S 1 1.00
     Exponent=  1.8504536357D-01 Coefficients=  1.0000000000D+00
 P 4 1.00
     Exponent=  6.3274954801D+01 Coefficients=  6.0685103418D-03
     Exponent=  1.4627049379D+01 Coefficients=  4.1912575824D-02
     Exponent=  4.4501223456D+00 Coefficients=  1.6153841088D-01
     Exponent=  1.5275799647D+00 Coefficients=  3.5706951311D-01
 P 1 1.00
     Exponent=  5.2935117943D-01 Coefficients=  4.4794207502D-01
 P 1 1.00
     Exponent=  1.7478421270D-01 Coefficients=  2.4446069663D-01
 D 1 1.00
     Exponent=  2.3140000000D+00 Coefficients=  1.0000000000D+00
 D 1 1.00
     Exponent=  6.4500000000D-01 Coefficients=  1.0000000000D+00
 F 1 1.00
     Exponent=  1.4280000000D+00 Coefficients=  1.0000000000D+00
 ****
 Ernie: Thresh=  0.10000D-02 Tol=  0.10000D-05 Strict=F.
 There are   393 symmetry adapted cartesian basis functions of A   symmetry.
 There are   393 symmetry adapted cartesian basis functions of B   symmetry.
 There are   346 symmetry adapted basis functions of A   symmetry.
 There are   346 symmetry adapted basis functions of B   symmetry.
   692 basis functions,  1054 primitive gaussians,   786 cartesian basis functions
    57 alpha electrons       57 beta electrons
       nuclear repulsion energy      1013.3577994564 Hartrees.
 IExCor= 1009 DFT=T Ex+Corr=PBE1PBE ExCW=0 ScaHFX=  0.250000
 ScaDFX=  0.750000  0.750000  1.000000  1.000000 ScalE2=  1.000000  1.000000
 IRadAn=      0 IRanWt=     -1 IRanGd=            0 ICorTp=0 IEmpDi=  4
 NAtoms=   30 NActive=   30 NUniq=   15 SFac= 4.00D+00 NAtFMM=   60 NAOKFM=F Big=F
 Integral buffers will be    131072 words long.
 Raffenetti 2 integral format.
 Two-electron integral symmetry is turned on.
 Leave Link  301 at Fri May 17 10:19:44 2024, MaxMem=  6291456000 cpu:         3.5
 (Enter /home/madghost/g09/l302.exe)
 NPDir=0 NMtPBC=     1 NCelOv=     1 NCel=       1 NClECP=     1 NCelD=      1
         NCelK=      1 NCelE2=     1 NClLst=     1 CellRange=     0.0.
 One-electron integrals computed using PRISM.
 One-electron integral symmetry used in STVInt
 NBasis=   692 RedAO= T EigKep=  5.81D-06  NBF=   346   346
 NBsUse=   692 1.00D-06 EigRej= -1.00D+00 NBFU=   346   346
 Precomputing XC quadrature grid using
 IXCGrd= 4 IRadAn=           0 IRanWt=          -1 IRanGd=           0 AccXCQ= 0.00D+00.
 Generated NRdTot=       0 NPtTot=           0 NUsed=           0 NTot=          32
 NSgBfM=   769   769   769   769   769 MxSgAt=    30 MxSgA2=    30.
 Leave Link  302 at Fri May 17 10:19:46 2024, MaxMem=  6291456000 cpu:        29.8
 (Enter /home/madghost/g09/l303.exe)
 DipDrv:  MaxL=1.
 Leave Link  303 at Fri May 17 10:19:46 2024, MaxMem=  6291456000 cpu:         3.9
 (Enter /home/madghost/g09/l401.exe)
 ExpMin= 9.52D-02 ExpMax= 2.70D+04 ExpMxC= 9.22D+02 IAcc=2 IRadAn=         4 AccDes= 0.00D+00
 Harris functional with IExCor= 1009 and IRadAn=       4 diagonalized for initial guess.
 HarFok:  IExCor= 1009 AccDes= 0.00D+00 IRadAn=         4 IDoV= 1 UseB2=F ITyADJ=14
 ICtDFT=  3500011 ScaDFX=  1.000000  1.000000  1.000000  1.000000
 FoFCou: FMM=F IPFlag=           0 FMFlag=      100000 FMFlg1=           0
         NFxFlg=           0 DoJE=T BraDBF=F KetDBF=T FulRan=T
         wScrn=  0.000000 ICntrl=     500 IOpCl=  0 I1Cent=   200000004 NGrid=           0
         NMat0=    1 NMatS0=      1 NMatT0=    0 NMatD0=    1 NMtDS0=    0 NMtDT0=    0
 Petite list used in FoFCou.
 Harris En= -692.026804606258    
 JPrj=0 DoOrth=F DoCkMO=F.
 Initial guess orbital symmetries:
       Occupied  (B) (A) (B) (A) (A) (B) (B) (A) (B) (A) (A) (B)
                 (A) (B) (B) (A) (A) (B) (A) (B) (A) (B) (A) (B)
                 (A) (B) (A) (B) (A) (B) (A) (B) (A) (B) (A) (B)
                 (A) (B) (A) (B) (A) (A) (B) (B) (A) (B) (A) (A)
                 (B) (B) (A) (A) (B) (A) (B) (B) (A)
       Virtual   (A) (B) (B) (A) (B) (A) (B) (A) (B) (A) (A) (B)
                 (A) (B) (A) (B) (A) (A) (B) (A) (B) (B) (A) (B)
                 (B) (A) (B) (A) (B) (A) (A) (B) (A) (B) (A) (B)
                 (A) (B) (B) (A) (B) (A) (A) (B) (A) (B) (B) (A)
                 (B) (A) (A) (B) (B) (A) (A) (A) (B) (B) (B) (A)
                 (A) (B) (A) (B) (B) (A) (A) (B) (A) (B) (B) (A)
                 (A) (B) (A) (B) (B) (A) (B) (A) (A) (A) (B) (B)
                 (A) (A) (B) (B) (A) (B) (B) (A) (B) (A) (B) (B)
                 (B) (A) (A) (B) (A) (A) (B) (B) (A) (A) (B) (B)
                 (A) (A) (B) (A) (A) (B) (B) (A) (A) (B) (B) (A)
                 (B) (A) (B) (A) (B) (A) (B) (A) (B) (B) (A) (B)
                 (A) (A) (B) (B) (A) (A) (B) (A) (A) (B) (B) (A)
                 (B) (A) (A) (B) (B) (A) (B) (A) (B) (A) (B) (A)
                 (B) (B) (A) (B) (A) (A) (B) (A) (B) (B) (A) (A)
                 (B) (A) (B) (A) (B) (A) (B) (A) (B) (B) (A) (B)
                 (A) (A) (B) (A) (A) (B) (A) (A) (B) (B) (A) (B)
                 (B) (A) (A) (B) (A) (B) (A) (B) (A) (A) (B) (A)
                 (B) (B) (A) (B) (B) (A) (B) (A) (B) (A) (A) (B)
                 (A) (B) (A) (B) (B) (A) (A) (B) (A) (B) (A) (B)
                 (A) (B) (B) (A) (A) (B) (B) (A) (B) (A) (B) (A)
                 (B) (A) (B) (A) (A) (B) (B) (A) (B) (A) (A) (B)
                 (A) (B) (B) (A) (B) (A) (B) (A) (B) (A) (B) (B)
                 (A) (B) (A) (B) (A) (A) (B) (B) (A) (B) (A) (A)
                 (B) (A) (B) (B) (A) (B) (A) (A) (A) (B) (A) (B)
                 (B) (B) (A) (B) (A) (A) (B) (A) (B) (A) (A) (B)
                 (B) (A) (B) (B) (A) (A) (B) (A) (B) (A) (B) (B)
                 (A) (B) (A) (A) (B) (A) (B) (A) (B) (A) (B) (A)
                 (B) (B) (A) (A) (B) (A) (A) (A) (B) (B) (B) (A)
                 (A) (B) (A) (A) (B) (A) (B) (B) (A) (A) (A) (B)
                 (B) (B) (A) (A) (B) (B) (A) (B) (B) (A) (A) (B)
                 (A) (A) (B) (B) (A) (B) (A) (A) (B) (B) (B) (A)
                 (A) (B) (A) (B) (B) (A) (A) (B) (A) (B) (A) (B)
                 (B) (A) (B) (A) (B) (A) (B) (A) (A) (B) (B) (A)
                 (B) (A) (B) (A) (B) (A) (A) (B) (B) (A) (A) (B)
                 (A) (B) (A) (B) (A) (B) (B) (A) (B) (A) (B) (A)
                 (B) (A) (B) (A) (A) (B) (B) (B) (A) (B) (A) (A)
                 (B) (A) (B) (A) (B) (A) (B) (A) (B) (A) (B) (A)
                 (B) (B) (A) (A) (B) (A) (B) (A) (B) (B) (A) (A)
                 (B) (A) (B) (B) (A) (B) (A) (B) (A) (B) (A) (B)
                 (A) (A) (A) (B) (B) (A) (A) (B) (B) (B) (A) (A)
                 (A) (B) (A) (B) (A) (B) (B) (A) (A) (B) (A) (B)
                 (A) (B) (B) (A) (A) (B) (A) (B) (A) (B) (A) (B)
                 (A) (B) (A) (B) (A) (B) (A) (A) (B) (A) (B) (A)
                 (B) (B) (A) (B) (A) (B) (A) (B) (A) (B) (B) (A)
                 (A) (B) (B) (A) (B) (A) (B) (B) (A) (A) (B) (B)
                 (A) (A) (A) (B) (B) (A) (B) (B) (A) (A) (B) (A)
                 (B) (A) (B) (B) (B) (A) (A) (B) (A) (B) (A) (A)
                 (B) (B) (B) (A) (A) (B) (A) (B) (A) (B) (A) (A)
                 (A) (B) (B) (A) (B) (B) (A) (A) (B) (A) (B) (A)
                 (B) (A) (B) (A) (B) (B) (A) (B) (A) (A) (B) (A)
                 (B) (A) (B) (A) (B) (A) (B) (B) (A) (A) (B) (A)
                 (B) (A) (B) (A) (B) (B) (A) (A) (B) (B) (A) (A)
                 (B) (B) (A) (A) (B) (A) (B) (A) (B) (A) (B)
 The electronic state of the initial guess is 1-A.
 Leave Link  401 at Fri May 17 10:19:49 2024, MaxMem=  6291456000 cpu:        59.0
 (Enter /home/madghost/g09/l502.exe)
 Closed shell SCF:
 Using DIIS extrapolation, IDIIS=  1040.
 Integral symmetry usage will be decided dynamically.
 IVT=     1897486 IEndB=     1897486 NGot=  6291456000 MDV=  6290193737
 LenX=  6290193737 LenY=  6289575155
 Requested convergence on RMS density matrix=1.00D-08 within 128 cycles.
 Requested convergence on MAX density matrix=1.00D-06.
 Requested convergence on             energy=1.00D-06.
 No special actions if energy rises.
 Fock matrices will be formed incrementally for  20 cycles.
 Integral accuracy reduced to 1.0D-05 until final iterations.

 Cycle   1  Pass 0  IDiag  1:
 FoFJK:  IHMeth= 1 ICntrl=       0 DoSepK=F KAlg= 0 I1Cent=   0 FoldK=F
 IRaf= 790000000 NMat=   1 IRICut=       1 DoRegI=T DoRafI=F ISym2E= 1.
 FoFCou: FMM=F IPFlag=           0 FMFlag=      100000 FMFlg1=           0
         NFxFlg=           0 DoJE=F BraDBF=F KetDBF=F FulRan=T
         wScrn=  0.000000 ICntrl=       0 IOpCl=  0 I1Cent=           0 NGrid=           0
         NMat0=    1 NMatS0=      1 NMatT0=    0 NMatD0=    1 NMtDS0=    0 NMtDT0=    0
 Petite list used in FoFCou.
 E= -691.424644458185    
 DIIS: error= 2.05D-02 at cycle   1 NSaved=   1.
 NSaved= 1 IEnMin= 1 EnMin= -691.424644458190     IErMin= 1 ErrMin= 2.05D-02
 ErrMax= 2.05D-02  0.00D+00 EMaxC= 1.00D-01 BMatC= 3.91D-01 BMatP= 3.91D-01
 IDIUse=3 WtCom= 7.95D-01 WtEn= 2.05D-01
 Coeff-Com:  0.100D+01
 Coeff-En:   0.100D+01
 Coeff:      0.100D+01
 Gap=     0.256 Goal=   None    Shift=    0.000
 GapD=    0.256 DampG=1.000 DampE=0.500 DampFc=0.5000 IDamp=-1.
 Damping current iteration by 5.00D-01
 RMSDP=3.67D-03 MaxDP=2.80D-01              OVMax= 2.01D-01

 Cycle   2  Pass 0  IDiag  1:
 RMSU=  1.84D-03    CP:  1.01D+00
 E= -691.592144085355     Delta-E=       -0.167499627164 Rises=F Damp=T
 DIIS: error= 4.82D-03 at cycle   2 NSaved=   2.
 NSaved= 2 IEnMin= 2 EnMin= -691.592144085355     IErMin= 2 ErrMin= 4.82D-03
 ErrMax= 4.82D-03  0.00D+00 EMaxC= 1.00D-01 BMatC= 2.88D-02 BMatP= 3.91D-01
 IDIUse=3 WtCom= 9.52D-01 WtEn= 4.82D-02
 Coeff-Com: -0.112D-01 0.101D+01
 Coeff-En:   0.449D-01 0.955D+00
 Coeff:     -0.854D-02 0.101D+01
 Gap=     0.265 Goal=   None    Shift=    0.000
 RMSDP=1.24D-03 MaxDP=6.67D-02 DE=-1.67D-01 OVMax= 1.45D-01

 Cycle   3  Pass 0  IDiag  1:
 RMSU=  9.95D-04    CP:  1.02D+00  1.40D+00
 E= -691.770410546025     Delta-E=       -0.178266460671 Rises=F Damp=F
 DIIS: error= 4.94D-03 at cycle   3 NSaved=   3.
 NSaved= 3 IEnMin= 3 EnMin= -691.770410546025     IErMin= 2 ErrMin= 4.82D-03
 ErrMax= 4.94D-03  0.00D+00 EMaxC= 1.00D-01 BMatC= 2.05D-02 BMatP= 2.88D-02
 IDIUse=3 WtCom= 9.51D-01 WtEn= 4.94D-02
 Coeff-Com: -0.710D-01 0.481D+00 0.590D+00
 Coeff-En:   0.000D+00 0.000D+00 0.100D+01
 Coeff:     -0.675D-01 0.458D+00 0.610D+00
 Gap=     0.230 Goal=   None    Shift=    0.000
 RMSDP=5.74D-04 MaxDP=4.51D-02 DE=-1.78D-01 OVMax= 6.98D-02

 Cycle   4  Pass 0  IDiag  1:
 RMSU=  4.08D-04    CP:  1.01D+00  1.21D+00  8.30D-01
 E= -691.784769798341     Delta-E=       -0.014359252316 Rises=F Damp=F
 DIIS: error= 3.51D-03 at cycle   4 NSaved=   4.
 NSaved= 4 IEnMin= 4 EnMin= -691.784769798341     IErMin= 4 ErrMin= 3.51D-03
 ErrMax= 3.51D-03  0.00D+00 EMaxC= 1.00D-01 BMatC= 6.56D-03 BMatP= 2.05D-02
 IDIUse=3 WtCom= 9.65D-01 WtEn= 3.51D-02
 Coeff-Com: -0.429D-01 0.151D+00 0.390D+00 0.502D+00
 Coeff-En:   0.000D+00 0.000D+00 0.266D+00 0.734D+00
 Coeff:     -0.414D-01 0.146D+00 0.385D+00 0.510D+00
 Gap=     0.222 Goal=   None    Shift=    0.000
 RMSDP=8.79D-04 MaxDP=5.97D-02 DE=-1.44D-02 OVMax= 2.74D-02

 Cycle   5  Pass 0  IDiag  1:
 RMSU=  3.90D-04    CP:  1.02D+00  1.59D+00  1.15D+00  7.32D-01
 E= -691.791509123175     Delta-E=       -0.006739324834 Rises=F Damp=F
 DIIS: error= 5.36D-04 at cycle   5 NSaved=   5.
 NSaved= 5 IEnMin= 5 EnMin= -691.791509123175     IErMin= 5 ErrMin= 5.36D-04
 ErrMax= 5.36D-04  0.00D+00 EMaxC= 1.00D-01 BMatC= 1.68D-04 BMatP= 6.56D-03
 IDIUse=3 WtCom= 9.95D-01 WtEn= 5.36D-03
 Coeff-Com: -0.126D-01 0.296D-01 0.114D+00 0.216D+00 0.653D+00
 Coeff-En:   0.000D+00 0.000D+00 0.000D+00 0.000D+00 0.100D+01
 Coeff:     -0.125D-01 0.294D-01 0.113D+00 0.215D+00 0.655D+00
 Gap=     0.222 Goal=   None    Shift=    0.000
 RMSDP=4.25D-04 MaxDP=2.72D-02 DE=-6.74D-03 OVMax= 3.86D-03

 Cycle   6  Pass 0  IDiag  1:
 RMSU=  1.20D-04    CP:  1.03D+00  1.78D+00  1.30D+00  7.95D-01  1.43D+00
 E= -691.791664521473     Delta-E=       -0.000155398297 Rises=F Damp=F
 DIIS: error= 1.30D-04 at cycle   6 NSaved=   6.
 NSaved= 6 IEnMin= 6 EnMin= -691.791664521473     IErMin= 6 ErrMin= 1.30D-04
 ErrMax= 1.30D-04  0.00D+00 EMaxC= 1.00D-01 BMatC= 1.95D-05 BMatP= 1.68D-04
 IDIUse=3 WtCom= 9.99D-01 WtEn= 1.30D-03
 Coeff-Com: -0.476D-02 0.891D-02 0.437D-01 0.940D-01 0.358D+00 0.500D+00
 Coeff-En:   0.000D+00 0.000D+00 0.000D+00 0.000D+00 0.000D+00 0.100D+01
 Coeff:     -0.475D-02 0.890D-02 0.436D-01 0.939D-01 0.357D+00 0.501D+00
 Gap=     0.222 Goal=   None    Shift=    0.000
 RMSDP=3.18D-04 MaxDP=1.99D-02 DE=-1.55D-04 OVMax= 9.51D-04

 Cycle   7  Pass 0  IDiag  1:
 RMSU=  4.07D-05    CP:  1.03D+00  1.91D+00  1.41D+00  8.27D-01  1.76D+00
                    CP:  1.72D+00
 E= -691.791675027355     Delta-E=       -0.000010505882 Rises=F Damp=F
 DIIS: error= 6.19D-05 at cycle   7 NSaved=   7.
 NSaved= 7 IEnMin= 7 EnMin= -691.791675027355     IErMin= 7 ErrMin= 6.19D-05
 ErrMax= 6.19D-05  0.00D+00 EMaxC= 1.00D-01 BMatC= 1.24D-06 BMatP= 1.95D-05
 IDIUse=1 WtCom= 1.00D+00 WtEn= 0.00D+00
 Coeff-Com: -0.102D-02 0.129D-02 0.939D-02 0.221D-01 0.994D-01 0.219D+00
 Coeff-Com:  0.650D+00
 Coeff:     -0.102D-02 0.129D-02 0.939D-02 0.221D-01 0.994D-01 0.219D+00
 Coeff:      0.650D+00
 Gap=     0.222 Goal=   None    Shift=    0.000
 RMSDP=4.30D-04 MaxDP=2.72D-02 DE=-1.05D-05 OVMax= 2.00D-04

 Cycle   8  Pass 0  IDiag  1:
 RMSU=  2.61D-05    CP:  1.04D+00  2.10D+00  1.55D+00  8.40D-01  2.22D+00
                    CP:  2.62D+00  2.70D+00
 E= -691.791663854029     Delta-E=        0.000011173326 Rises=F Damp=F
 DIIS: error= 7.02D-05 at cycle   8 NSaved=   8.
 NSaved= 8 IEnMin= 7 EnMin= -691.791675027355     IErMin= 7 ErrMin= 6.19D-05
 ErrMax= 7.02D-05  0.00D+00 EMaxC= 1.00D-01 BMatC= 6.85D-07 BMatP= 1.24D-06
 IDIUse=1 WtCom= 1.00D+00 WtEn= 0.00D+00
 Coeff-Com: -0.421D-03 0.463D-03 0.401D-02 0.940D-02 0.450D-01 0.111D+00
 Coeff-Com:  0.387D+00 0.444D+00
 Coeff:     -0.421D-03 0.463D-03 0.401D-02 0.940D-02 0.450D-01 0.111D+00
 Coeff:      0.387D+00 0.444D+00
 Gap=     0.222 Goal=   None    Shift=    0.000
 RMSDP=3.19D-04 MaxDP=1.94D-02 DE= 1.12D-05 OVMax= 1.43D-04

 Cycle   9  Pass 0  IDiag  1:
 RMSU=  5.70D-05    CP:  1.04D+00  2.23D+00  1.65D+00  8.34D-01  2.58D+00
                    CP:  3.00D+00  3.00D+00  2.32D+00
 E= -691.791657710173     Delta-E=        0.000006143856 Rises=F Damp=F
 DIIS: error= 8.35D-05 at cycle   9 NSaved=   9.
 NSaved= 9 IEnMin= 7 EnMin= -691.791675027355     IErMin= 7 ErrMin= 6.19D-05
 ErrMax= 8.35D-05  0.00D+00 EMaxC= 1.00D-01 BMatC= 7.15D-07 BMatP= 6.85D-07
 IDIUse=1 WtCom= 1.00D+00 WtEn= 0.00D+00
 Coeff-Com: -0.256D-03-0.149D-03 0.272D-02 0.755D-02 0.483D-01 0.166D+00
 Coeff-Com:  0.772D+00 0.123D+01-0.123D+01
 Coeff:     -0.256D-03-0.149D-03 0.272D-02 0.755D-02 0.483D-01 0.166D+00
 Coeff:      0.772D+00 0.123D+01-0.123D+01
 Gap=     0.222 Goal=   None    Shift=    0.000
 RMSDP=7.24D-04 MaxDP=4.60D-02 DE= 6.14D-06 OVMax= 3.35D-04

 Problem detected with inexpensive integrals.
 Switching to full accuracy and repeating last cycle.
 Cycle  10  Pass 1  IDiag  1:
 E= -691.791479192332     Delta-E=        0.000178517841 Rises=F Damp=F
 DIIS: error= 7.24D-04 at cycle   1 NSaved=   1.
 NSaved= 1 IEnMin= 1 EnMin= -691.791479192332     IErMin= 1 ErrMin= 7.24D-04
 ErrMax= 7.24D-04  0.00D+00 EMaxC= 1.00D-01 BMatC= 8.37D-05 BMatP= 8.37D-05
 IDIUse=3 WtCom= 9.93D-01 WtEn= 7.24D-03
 Coeff-Com:  0.100D+01
 Coeff-En:   0.100D+01
 Coeff:      0.100D+01
 Gap=     0.222 Goal=   None    Shift=    0.000
 RMSDP=3.82D-03 MaxDP=2.23D-01 DE= 1.79D-04 OVMax= 1.72D-03

 Cycle  11  Pass 1  IDiag  1:
 RMSU=  2.89D-03    CP:  6.60D-01
 E= -691.791552240852     Delta-E=       -0.000073048520 Rises=F Damp=F
 DIIS: error= 1.54D-05 at cycle   2 NSaved=   2.
 NSaved= 2 IEnMin= 2 EnMin= -691.791552240852     IErMin= 2 ErrMin= 1.54D-05
 ErrMax= 1.54D-05  0.00D+00 EMaxC= 1.00D-01 BMatC= 2.64D-08 BMatP= 8.37D-05
 IDIUse=1 WtCom= 1.00D+00 WtEn= 0.00D+00
 Coeff-Com: -0.116D-01 0.101D+01
 Coeff:     -0.116D-01 0.101D+01
 Gap=     0.222 Goal=   None    Shift=    0.000
 RMSDP=5.20D-05 MaxDP=2.96D-03 DE=-7.30D-05 OVMax= 5.39D-05

 Cycle  12  Pass 1  IDiag  1:
 RMSU=  2.34D-05    CP:  6.55D-01  1.01D+00
 E= -691.791552280307     Delta-E=       -0.000000039455 Rises=F Damp=F
 DIIS: error= 1.76D-06 at cycle   3 NSaved=   3.
 NSaved= 3 IEnMin= 3 EnMin= -691.791552280307     IErMin= 3 ErrMin= 1.76D-06
 ErrMax= 1.76D-06  0.00D+00 EMaxC= 1.00D-01 BMatC= 3.83D-09 BMatP= 2.64D-08
 IDIUse=1 WtCom= 1.00D+00 WtEn= 0.00D+00
 Coeff-Com: -0.321D-02 0.269D+00 0.735D+00
 Coeff:     -0.321D-02 0.269D+00 0.735D+00
 Gap=     0.222 Goal=   None    Shift=    0.000
 RMSDP=9.93D-07 MaxDP=7.31D-05 DE=-3.95D-08 OVMax= 1.24D-05

 Cycle  13  Pass 1  IDiag  1:
 RMSU=  4.00D-07    CP:  6.55D-01  1.01D+00  1.02D+00
 E= -691.791552281635     Delta-E=       -0.000000001329 Rises=F Damp=F
 DIIS: error= 1.34D-06 at cycle   4 NSaved=   4.
 NSaved= 4 IEnMin= 4 EnMin= -691.791552281635     IErMin= 4 ErrMin= 1.34D-06
 ErrMax= 1.34D-06  0.00D+00 EMaxC= 1.00D-01 BMatC= 2.33D-09 BMatP= 3.83D-09
 IDIUse=1 WtCom= 1.00D+00 WtEn= 0.00D+00
 Coeff-Com: -0.442D-04-0.315D-02 0.436D+00 0.567D+00
 Coeff:     -0.442D-04-0.315D-02 0.436D+00 0.567D+00
 Gap=     0.222 Goal=   None    Shift=    0.000
 RMSDP=2.72D-07 MaxDP=1.25D-05 DE=-1.33D-09 OVMax= 1.04D-05

 Cycle  14  Pass 1  IDiag  1:
 RMSU=  1.17D-07    CP:  6.55D-01  1.01D+00  1.03D+00  1.11D+00
 E= -691.791552283275     Delta-E=       -0.000000001640 Rises=F Damp=F
 DIIS: error= 5.51D-07 at cycle   5 NSaved=   5.
 NSaved= 5 IEnMin= 5 EnMin= -691.791552283275     IErMin= 5 ErrMin= 5.51D-07
 ErrMax= 5.51D-07  0.00D+00 EMaxC= 1.00D-01 BMatC= 1.21D-10 BMatP= 2.33D-09
 IDIUse=1 WtCom= 1.00D+00 WtEn= 0.00D+00
 Coeff-Com:  0.115D-03-0.133D-01 0.192D+00 0.309D+00 0.512D+00
 Coeff:      0.115D-03-0.133D-01 0.192D+00 0.309D+00 0.512D+00
 Gap=     0.222 Goal=   None    Shift=    0.000
 RMSDP=4.12D-08 MaxDP=3.06D-06 DE=-1.64D-09 OVMax= 3.97D-06

 Cycle  15  Pass 1  IDiag  1:
 RMSU=  2.36D-08    CP:  6.55D-01  1.01D+00  1.03D+00  1.16D+00  9.50D-01
 E= -691.791552283334     Delta-E=       -0.000000000059 Rises=F Damp=F
 DIIS: error= 1.02D-07 at cycle   6 NSaved=   6.
 NSaved= 6 IEnMin= 6 EnMin= -691.791552283334     IErMin= 6 ErrMin= 1.02D-07
 ErrMax= 1.02D-07  0.00D+00 EMaxC= 1.00D-01 BMatC= 9.30D-12 BMatP= 1.21D-10
 IDIUse=1 WtCom= 1.00D+00 WtEn= 0.00D+00
 Coeff-Com:  0.715D-04-0.740D-02 0.666D-01 0.118D+00 0.268D+00 0.554D+00
 Coeff:      0.715D-04-0.740D-02 0.666D-01 0.118D+00 0.268D+00 0.554D+00
 Gap=     0.222 Goal=   None    Shift=    0.000
 RMSDP=5.76D-09 MaxDP=2.57D-07 DE=-5.91D-11 OVMax= 9.89D-07

 SCF Done:  E(RPBE1PBE) =  -691.791552283     A.U. after   15 cycles
            NFock= 15  Conv=0.58D-08     -V/T= 2.0047
 KE= 6.885842542147D+02 PE=-3.637723854970D+03 EE= 1.243990249016D+03
 Leave Link  502 at Fri May 17 10:23:03 2024, MaxMem=  6291456000 cpu:      4631.6
 (Enter /home/madghost/g09/l601.exe)
 Copying SCF densities to generalized density rwf, IOpCl= 0 IROHF=0.

 **********************************************************************

            Population analysis using the SCF density.

 **********************************************************************

 Orbital symmetries:
       Occupied  (B) (A) (B) (A) (A) (B) (B) (A) (B) (A) (B) (A)
                 (B) (A) (B) (A) (A) (B) (A) (B) (A) (B) (A) (B)
                 (A) (B) (A) (B) (A) (B) (A) (B) (A) (B) (A) (B)
                 (A) (A) (B) (A) (B) (A) (B) (B) (A) (A) (B) (A)
                 (B) (B) (A) (B) (A) (A) (B) (B) (A)
       Virtual   (A) (B) (B) (A) (A) (B) (A) (B) (A) (B) (A) (B)
                 (A) (B) (A) (B) (B) (A) (B) (A) (A) (B) (A) (B)
                 (A) (A) (B) (A) (B) (B) (A) (B) (B) (A) (A) (B)
                 (B) (A) (A) (A) (B) (B) (B) (A) (A) (B) (B) (A)
                 (A) (A) (B) (B) (B) (A) (B) (A) (B) (A) (A) (B)
                 (A) (B) (B) (A) (A) (B) (A) (B) (B) (A) (A) (B)
                 (A) (B) (A) (B) (B) (A) (A) (B) (B) (A) (B) (A)
                 (A) (A) (B) (B) (A) (B) (A) (B) (B) (B) (A) (B)
                 (B) (A) (A) (B) (A) (A) (B) (A) (B) (A) (B) (B)
                 (A) (B) (A) (A) (B) (A) (A) (B) (A) (B) (B) (A)
                 (B) (A) (B) (B) (A) (A) (B) (A) (B) (A) (B) (B)
                 (A) (A) (B) (B) (A) (B) (A) (A) (A) (B) (B) (A)
                 (B) (A) (A) (B) (B) (A) (B) (A) (A) (B) (B) (A)
                 (B) (A) (B) (B) (A) (B) (A) (A) (B) (B) (A) (A)
                 (B) (A) (B) (A) (B) (A) (B) (A) (B) (B) (A) (A)
                 (B) (A) (B) (A) (B) (A) (A) (B) (A) (B) (B) (A)
                 (A) (B) (A) (B) (A) (B) (A) (B) (A) (B) (A) (B)
                 (A) (B) (A) (B) (B) (A) (A) (B) (B) (A) (B) (A)
                 (A) (B) (A) (B) (A) (B) (B) (A) (A) (B) (B) (A)
                 (A) (B) (B) (A) (B) (A) (A) (B) (B) (A) (B) (A)
                 (B) (A) (B) (A) (A) (B) (B) (A) (B) (A) (A) (B)
                 (A) (B) (B) (A) (B) (A) (B) (B) (A) (A) (B) (B)
                 (B) (A) (A) (B) (A) (A) (B) (A) (B) (B) (A) (A)
                 (B) (A) (B) (B) (A) (B) (A) (A) (A) (B) (A) (B)
                 (B) (B) (A) (B) (A) (B) (A) (A) (B) (A) (A) (B)
                 (B) (A) (B) (A) (B) (A) (B) (A) (B) (A) (B) (B)
                 (A) (B) (A) (A) (B) (A) (B) (A) (B) (A) (B) (A)
                 (B) (A) (B) (A) (B) (A) (A) (A) (B) (B) (B) (A)
                 (A) (B) (A) (A) (A) (B) (A) (B) (B) (A) (B) (A)
                 (B) (B) (A) (A) (B) (B) (B) (A) (B) (A) (B) (A)
                 (A) (B) (A) (B) (A) (B) (A) (A) (B) (B) (A) (B)
                 (A) (A) (B) (B) (B) (A) (A) (B) (B) (A) (A) (B)
                 (B) (A) (B) (A) (B) (A) (B) (A) (A) (B) (B) (A)
                 (B) (A) (B) (A) (B) (A) (B) (A) (B) (A) (A) (B)
                 (B) (A) (A) (B) (A) (B) (B) (A) (B) (A) (B) (A)
                 (B) (A) (B) (A) (B) (A) (B) (B) (A) (B) (A) (B)
                 (A) (A) (B) (A) (B) (A) (B) (A) (B) (A) (B) (A)
                 (B) (A) (B) (A) (B) (B) (A) (A) (B) (A) (B) (A)
                 (B) (A) (B) (A) (B) (B) (A) (B) (A) (B) (A) (A)
                 (B) (A) (A) (B) (A) (B) (B) (A) (B) (A) (A) (A)
                 (B) (B) (A) (B) (A) (B) (A) (B) (A) (B) (A) (B)
                 (B) (A) (B) (A) (A) (B) (A) (B) (A) (B) (B) (A)
                 (A) (B) (A) (B) (A) (B) (A) (A) (B) (A) (B) (A)
                 (A) (B) (B) (B) (A) (B) (A) (B) (A) (B) (B) (A)
                 (A) (B) (B) (A) (B) (B) (A) (B) (A) (A) (B) (B)
                 (A) (A) (B) (A) (B) (B) (A) (B) (A) (B) (A) (A)
                 (B) (A) (B) (B) (B) (A) (A) (B) (A) (A) (B) (B)
                 (A) (B) (B) (A) (A) (B) (A) (B) (A) (B) (A) (A)
                 (A) (B) (B) (B) (A) (A) (B) (A) (B) (A) (B) (A)
                 (B) (A) (B) (A) (B) (B) (A) (A) (B) (A) (B) (A)
                 (B) (A) (B) (A) (B) (A) (B) (B) (A) (A) (B) (A)
                 (B) (A) (B) (A) (B) (B) (A) (A) (B) (B) (A) (A)
                 (B) (B) (A) (A) (B) (A) (B) (A) (B) (A) (B)
 The electronic state is 1-A.
 Alpha  occ. eigenvalues --  -19.24635 -19.24635 -10.29100 -10.29099 -10.28428
 Alpha  occ. eigenvalues --  -10.28402 -10.23232 -10.23232 -10.23074 -10.23074
 Alpha  occ. eigenvalues --  -10.22874 -10.22874 -10.22438 -10.22438 -10.22239
 Alpha  occ. eigenvalues --  -10.22239  -1.11375  -1.10551  -0.88852  -0.88575
 Alpha  occ. eigenvalues --   -0.81434  -0.78003  -0.77804  -0.77431  -0.74614
 Alpha  occ. eigenvalues --   -0.68772  -0.63880  -0.63364  -0.62064  -0.60576
 Alpha  occ. eigenvalues --   -0.56951  -0.56352  -0.51730  -0.51481  -0.50981
 Alpha  occ. eigenvalues --   -0.49560  -0.48015  -0.47424  -0.45933  -0.44644
 Alpha  occ. eigenvalues --   -0.44318  -0.43990  -0.43533  -0.41585  -0.40044
 Alpha  occ. eigenvalues --   -0.38561  -0.38010  -0.37832  -0.36803  -0.36178
 Alpha  occ. eigenvalues --   -0.34516  -0.33608  -0.33436  -0.27368  -0.27291
 Alpha  occ. eigenvalues --   -0.24721  -0.23492
 Alpha virt. eigenvalues --   -0.01305  -0.01200   0.00069   0.00419   0.04656
 Alpha virt. eigenvalues --    0.06359   0.06835   0.07138   0.07718   0.08004
 Alpha virt. eigenvalues --    0.09431   0.09895   0.10422   0.11701   0.12615
 Alpha virt. eigenvalues --    0.12775   0.13559   0.13672   0.15026   0.15105
 Alpha virt. eigenvalues --    0.15984   0.16426   0.16773   0.18163   0.19021
 Alpha virt. eigenvalues --    0.20526   0.20835   0.21198   0.21417   0.22149
 Alpha virt. eigenvalues --    0.22647   0.22651   0.23310   0.23464   0.23820
 Alpha virt. eigenvalues --    0.24677   0.25482   0.25789   0.26607   0.27076
 Alpha virt. eigenvalues --    0.27521   0.27787   0.29294   0.29404   0.30180
 Alpha virt. eigenvalues --    0.31253   0.31605   0.32171   0.32911   0.33883
 Alpha virt. eigenvalues --    0.34465   0.34797   0.35232   0.36064   0.36384
 Alpha virt. eigenvalues --    0.36948   0.37817   0.38128   0.38394   0.38847
 Alpha virt. eigenvalues --    0.39770   0.40024   0.40626   0.40765   0.41986
 Alpha virt. eigenvalues --    0.42347   0.42634   0.43357   0.43730   0.44165
 Alpha virt. eigenvalues --    0.44969   0.45300   0.45719   0.46372   0.46900
 Alpha virt. eigenvalues --    0.47286   0.48412   0.48826   0.49528   0.49888
 Alpha virt. eigenvalues --    0.50385   0.50415   0.50809   0.51240   0.51675
 Alpha virt. eigenvalues --    0.53149   0.53761   0.54610   0.55389   0.56858
 Alpha virt. eigenvalues --    0.57492   0.58089   0.60338   0.61719   0.61955
 Alpha virt. eigenvalues --    0.63080   0.64168   0.65071   0.65884   0.66314
 Alpha virt. eigenvalues --    0.66424   0.67020   0.67960   0.68141   0.69253
 Alpha virt. eigenvalues --    0.69819   0.69883   0.70417   0.70577   0.72241
 Alpha virt. eigenvalues --    0.72326   0.72834   0.73096   0.74378   0.76204
 Alpha virt. eigenvalues --    0.76743   0.77196   0.77522   0.78378   0.79443
 Alpha virt. eigenvalues --    0.80546   0.80683   0.82342   0.82632   0.82686
 Alpha virt. eigenvalues --    0.84886   0.85326   0.86091   0.86640   0.87529
 Alpha virt. eigenvalues --    0.88126   0.88896   0.89605   0.89935   0.91652
 Alpha virt. eigenvalues --    0.92378   0.94814   0.95337   0.95702   0.97501
 Alpha virt. eigenvalues --    0.97800   0.98134   0.99350   0.99762   0.99880
 Alpha virt. eigenvalues --    1.00017   1.01766   1.02420   1.02948   1.03280
 Alpha virt. eigenvalues --    1.05050   1.05282   1.05862   1.06376   1.08032
 Alpha virt. eigenvalues --    1.09378   1.10911   1.12288   1.12309   1.12908
 Alpha virt. eigenvalues --    1.13299   1.13957   1.14258   1.16327   1.16765
 Alpha virt. eigenvalues --    1.17745   1.17923   1.18848   1.20942   1.22170
 Alpha virt. eigenvalues --    1.22350   1.22961   1.23209   1.24021   1.24355
 Alpha virt. eigenvalues --    1.24459   1.25628   1.28046   1.28096   1.29792
 Alpha virt. eigenvalues --    1.30469   1.31040   1.31567   1.32142   1.32394
 Alpha virt. eigenvalues --    1.32691   1.33325   1.33729   1.34458   1.34738
 Alpha virt. eigenvalues --    1.36724   1.36803   1.37278   1.37465   1.39850
 Alpha virt. eigenvalues --    1.40472   1.43021   1.43960   1.44187   1.45602
 Alpha virt. eigenvalues --    1.45717   1.46212   1.46935   1.47730   1.48013
 Alpha virt. eigenvalues --    1.49429   1.50398   1.50656   1.51228   1.52159
 Alpha virt. eigenvalues --    1.53842   1.54048   1.55099   1.55460   1.56586
 Alpha virt. eigenvalues --    1.57333   1.59355   1.59495   1.60443   1.61079
 Alpha virt. eigenvalues --    1.61886   1.62234   1.63401   1.64180   1.65382
 Alpha virt. eigenvalues --    1.65537   1.66095   1.67399   1.69735   1.70236
 Alpha virt. eigenvalues --    1.71639   1.72278   1.73338   1.73571   1.76509
 Alpha virt. eigenvalues --    1.76586   1.79577   1.81461   1.82769   1.84091
 Alpha virt. eigenvalues --    1.85247   1.86124   1.86314   1.89171   1.93267
 Alpha virt. eigenvalues --    1.93509   1.94538   1.94750   1.97192   1.97902
 Alpha virt. eigenvalues --    1.98630   1.98745   1.99895   2.01029   2.01306
 Alpha virt. eigenvalues --    2.01902   2.03757   2.04744   2.06615   2.08146
 Alpha virt. eigenvalues --    2.08356   2.09392   2.10103   2.12551   2.14963
 Alpha virt. eigenvalues --    2.15827   2.18946   2.20821   2.21984   2.26568
 Alpha virt. eigenvalues --    2.27577   2.27614   2.28129   2.29446   2.29803
 Alpha virt. eigenvalues --    2.32750   2.34013   2.36128   2.37093   2.38474
 Alpha virt. eigenvalues --    2.38772   2.38949   2.39509   2.40284   2.43788
 Alpha virt. eigenvalues --    2.44261   2.45716   2.45788   2.49710   2.51659
 Alpha virt. eigenvalues --    2.53960   2.56252   2.57341   2.61104   2.61608
 Alpha virt. eigenvalues --    2.62900   2.63363   2.64403   2.65340   2.65793
 Alpha virt. eigenvalues --    2.68103   2.69650   2.70268   2.72457   2.72466
 Alpha virt. eigenvalues --    2.73245   2.74140   2.75354   2.76957   2.77660
 Alpha virt. eigenvalues --    2.78005   2.78227   2.78570   2.79218   2.79435
 Alpha virt. eigenvalues --    2.80803   2.81870   2.82712   2.84217   2.84682
 Alpha virt. eigenvalues --    2.84910   2.85880   2.87608   2.87853   2.88935
 Alpha virt. eigenvalues --    2.91308   2.91795   2.92641   2.93142   2.93446
 Alpha virt. eigenvalues --    2.94561   2.95373   2.96231   2.98434   2.99197
 Alpha virt. eigenvalues --    2.99791   3.00223   3.01593   3.03071   3.03254
 Alpha virt. eigenvalues --    3.03885   3.04032   3.04338   3.04357   3.04665
 Alpha virt. eigenvalues --    3.05697   3.06243   3.06413   3.06924   3.08572
 Alpha virt. eigenvalues --    3.08651   3.09531   3.10318   3.11444   3.13298
 Alpha virt. eigenvalues --    3.13427   3.14948   3.15662   3.15971   3.16199
 Alpha virt. eigenvalues --    3.16883   3.17479   3.17724   3.17889   3.18565
 Alpha virt. eigenvalues --    3.18810   3.19413   3.20214   3.20804   3.21258
 Alpha virt. eigenvalues --    3.23706   3.24347   3.24543   3.25702   3.26291
 Alpha virt. eigenvalues --    3.26870   3.28258   3.29256   3.31296   3.31730
 Alpha virt. eigenvalues --    3.32689   3.32875   3.33173   3.33332   3.33584
 Alpha virt. eigenvalues --    3.35368   3.35692   3.36420   3.36848   3.37259
 Alpha virt. eigenvalues --    3.37931   3.38351   3.38818   3.39387   3.41413
 Alpha virt. eigenvalues --    3.41853   3.42833   3.44355   3.44490   3.45528
 Alpha virt. eigenvalues --    3.47083   3.48480   3.49119   3.49209   3.50363
 Alpha virt. eigenvalues --    3.51495   3.52507   3.53705   3.55079   3.55291
 Alpha virt. eigenvalues --    3.55894   3.56909   3.58650   3.59373   3.59968
 Alpha virt. eigenvalues --    3.60264   3.61926   3.62402   3.63575   3.65385
 Alpha virt. eigenvalues --    3.65501   3.68187   3.68372   3.70348   3.72304
 Alpha virt. eigenvalues --    3.72477   3.74540   3.76486   3.77214   3.77599
 Alpha virt. eigenvalues --    3.77695   3.78635   3.78713   3.78904   3.79439
 Alpha virt. eigenvalues --    3.79645   3.80104   3.81507   3.81778   3.82692
 Alpha virt. eigenvalues --    3.83216   3.83334   3.83875   3.84840   3.85003
 Alpha virt. eigenvalues --    3.86247   3.86262   3.87949   3.88225   3.89567
 Alpha virt. eigenvalues --    3.90133   3.92389   3.92616   3.92938   3.94013
 Alpha virt. eigenvalues --    3.95363   3.95500   3.96504   3.98000   4.00558
 Alpha virt. eigenvalues --    4.00766   4.01878   4.03471   4.05199   4.06314
 Alpha virt. eigenvalues --    4.07962   4.08965   4.10846   4.11415   4.12090
 Alpha virt. eigenvalues --    4.13029   4.13759   4.15943   4.16038   4.17663
 Alpha virt. eigenvalues --    4.18511   4.19563   4.21189   4.22225   4.22670
 Alpha virt. eigenvalues --    4.22749   4.23906   4.25444   4.25472   4.26045
 Alpha virt. eigenvalues --    4.26604   4.26835   4.28021   4.28246   4.28742
 Alpha virt. eigenvalues --    4.29269   4.29781   4.31004   4.31523   4.33072
 Alpha virt. eigenvalues --    4.33322   4.34011   4.35124   4.36248   4.38871
 Alpha virt. eigenvalues --    4.40740   4.40877   4.42006   4.42139   4.43408
 Alpha virt. eigenvalues --    4.48765   4.50204   4.52218   4.52951   4.55916
 Alpha virt. eigenvalues --    4.57019   4.58348   4.60144   4.61758   4.63199
 Alpha virt. eigenvalues --    4.63461   4.66330   4.66392   4.67479   4.68058
 Alpha virt. eigenvalues --    4.68253   4.69706   4.70275   4.71401   4.72105
 Alpha virt. eigenvalues --    4.72909   4.73674   4.75319   4.75821   4.76320
 Alpha virt. eigenvalues --    4.77660   4.79889   4.80462   4.81756   4.81862
 Alpha virt. eigenvalues --    4.83055   4.83881   4.84751   4.86548   4.88245
 Alpha virt. eigenvalues --    4.90212   4.92115   4.95213   4.96007   4.97094
 Alpha virt. eigenvalues --    4.99674   4.99751   5.02253   5.03032   5.05198
 Alpha virt. eigenvalues --    5.05210   5.08420   5.09941   5.11083   5.12668
 Alpha virt. eigenvalues --    5.18955   5.21912   5.22688   5.22938   5.24103
 Alpha virt. eigenvalues --    5.30519   5.30802   5.31668   5.32763   5.33500
 Alpha virt. eigenvalues --    5.34543   5.36577   5.37846   5.38926   5.40810
 Alpha virt. eigenvalues --    5.41102   5.43194   5.44622   5.45822   5.45906
 Alpha virt. eigenvalues --    5.49702   5.51602   5.52367   5.54044   5.58882
 Alpha virt. eigenvalues --    5.60715   5.61582   5.63100   5.64423   5.70502
 Alpha virt. eigenvalues --    5.71692   5.73089   5.73550   5.75974   5.81827
 Alpha virt. eigenvalues --    5.83131   5.86840   5.88686   5.93468   5.95122
 Alpha virt. eigenvalues --    6.00298   6.00390   6.08579   6.10751   6.14669
 Alpha virt. eigenvalues --    6.17042   6.29047   6.31122   6.49876   6.50478
 Alpha virt. eigenvalues --    6.53528   6.59183   6.75421   6.76329   6.82977
 Alpha virt. eigenvalues --    6.85894   6.95670   6.95682   7.04718   7.07709
 Alpha virt. eigenvalues --    7.34937   7.35942   7.53194   7.54922  22.66672
 Alpha virt. eigenvalues --   22.72729  23.19486  23.19511  23.27457  23.27828
 Alpha virt. eigenvalues --   23.31671  23.31853  23.38221  23.38245  23.48743
 Alpha virt. eigenvalues --   23.51886  24.16005  24.16042  44.51565  44.65651
          Condensed to atoms (all electrons):
               1          2          3          4          5          6
     1  C    4.845842   0.387515   0.452003   0.280318  -0.084758  -0.024166
     2  H    0.387515   0.563305  -0.013924  -0.024166   0.006749  -0.008502
     3  H    0.452003  -0.013924   0.590167  -0.084758  -0.003372   0.006749
     4  C    0.280318  -0.024166  -0.084758   4.845842   0.452003   0.387515
     5  H   -0.084758   0.006749  -0.003372   0.452003   0.590167  -0.013924
     6  H   -0.024166  -0.008502   0.006749   0.387515  -0.013924   0.563305
     7  O    0.261878  -0.026734  -0.036874  -0.041113   0.001385   0.006305
     8  O   -0.041113   0.006305   0.001385   0.261878  -0.036874  -0.026734
     9  C   -0.081547   0.006882  -0.025736   0.028129   0.008200  -0.002383
    10  C    0.002394  -0.002325   0.006031  -0.002030  -0.003105   0.002674
    11  C   -0.009805  -0.000140   0.004715  -0.000226   0.001884   0.000975
    12  C   -0.004638   0.000252  -0.003885   0.002642   0.000809  -0.000327
    13  C   -0.000723   0.000141  -0.000654   0.000333   0.000004  -0.000178
    14  C    0.000484  -0.000047   0.000711  -0.000454   0.000033   0.000091
    15  H    0.003650  -0.000483   0.007166  -0.002694  -0.000604   0.000526
    16  H    0.000195  -0.000214   0.000329  -0.000451   0.000015   0.000284
    17  H    0.000011   0.000001  -0.000033   0.000003   0.000006   0.000000
    18  H    0.000014   0.000000  -0.000005   0.000008   0.000000  -0.000002
    19  H    0.000000   0.000000   0.000003  -0.000001   0.000001   0.000000
    20  C    0.028129  -0.002383   0.008200  -0.081547  -0.025736   0.006882
    21  C   -0.002030   0.002674  -0.003105   0.002394   0.006031  -0.002325
    22  C   -0.000226   0.000975   0.001884  -0.009805   0.004715  -0.000140
    23  C    0.002642  -0.000327   0.000809  -0.004638  -0.003885   0.000252
    24  C    0.000333  -0.000178   0.000004  -0.000723  -0.000654   0.000141
    25  C   -0.000454   0.000091   0.000033   0.000484   0.000711  -0.000047
    26  H   -0.002694   0.000526  -0.000604   0.003650   0.007166  -0.000483
    27  H   -0.000451   0.000284   0.000015   0.000195   0.000329  -0.000214
    28  H    0.000003   0.000000   0.000006   0.000011  -0.000033   0.000001
    29  H    0.000008  -0.000002   0.000000   0.000014  -0.000005   0.000000
    30  H   -0.000001   0.000000   0.000001   0.000000   0.000003   0.000000
               7          8          9         10         11         12
     1  C    0.261878  -0.041113  -0.081547   0.002394  -0.009805  -0.004638
     2  H   -0.026734   0.006305   0.006882  -0.002325  -0.000140   0.000252
     3  H   -0.036874   0.001385  -0.025736   0.006031   0.004715  -0.003885
     4  C   -0.041113   0.261878   0.028129  -0.002030  -0.000226   0.002642
     5  H    0.001385  -0.036874   0.008200  -0.003105   0.001884   0.000809
     6  H    0.006305  -0.026734  -0.002383   0.002674   0.000975  -0.000327
     7  O    7.835646   0.003982   0.343525  -0.075587  -0.039609   0.010270
     8  O    0.003982   7.835646  -0.000609  -0.000007   0.000102  -0.000012
     9  C    0.343525  -0.000609   4.967915   0.218725   0.379371   0.109449
    10  C   -0.075587  -0.000007   0.218725   5.265400   0.097410   0.309871
    11  C   -0.039609   0.000102   0.379371   0.097410   4.958254  -0.109291
    12  C    0.010270  -0.000012   0.109449   0.309871  -0.109291   4.991332
    13  C    0.001631  -0.000006   0.030981  -0.113280   0.505783   0.015674
    14  C   -0.000295   0.000006  -0.109383   0.024534  -0.005676   0.487133
    15  H   -0.007550   0.000647  -0.056778   0.432152   0.006150  -0.029263
    16  H    0.011524   0.000003  -0.066559   0.019713   0.427369  -0.005764
    17  H   -0.000159  -0.000002   0.001019  -0.020750   0.002514   0.398189
    18  H   -0.000211   0.000000   0.012476  -0.003906  -0.035572   0.010216
    19  H    0.000016   0.000000  -0.000995   0.009458   0.006298  -0.032168
    20  C   -0.000609   0.343525  -0.001243  -0.000140   0.000079  -0.000372
    21  C   -0.000007  -0.075587  -0.000140  -0.002876  -0.000393  -0.000532
    22  C    0.000102  -0.039609   0.000079  -0.000393   0.000000   0.000006
    23  C   -0.000012   0.010270  -0.000372  -0.000532   0.000006   0.000134
    24  C   -0.000006   0.001631  -0.000018   0.000079   0.000000  -0.000002
    25  C    0.000006  -0.000295   0.000034  -0.000171   0.000000   0.000013
    26  H    0.000647  -0.007550   0.000380  -0.000230  -0.000526   0.003183
    27  H    0.000003   0.011524   0.000009  -0.000008   0.000000   0.000000
    28  H   -0.000002  -0.000159   0.000003   0.000001   0.000001  -0.000026
    29  H    0.000000  -0.000211   0.000000   0.000000   0.000000   0.000000
    30  H    0.000000   0.000016   0.000000  -0.000001   0.000000   0.000000
              13         14         15         16         17         18
     1  C   -0.000723   0.000484   0.003650   0.000195   0.000011   0.000014
     2  H    0.000141  -0.000047  -0.000483  -0.000214   0.000001   0.000000
     3  H   -0.000654   0.000711   0.007166   0.000329  -0.000033  -0.000005
     4  C    0.000333  -0.000454  -0.002694  -0.000451   0.000003   0.000008
     5  H    0.000004   0.000033  -0.000604   0.000015   0.000006   0.000000
     6  H   -0.000178   0.000091   0.000526   0.000284   0.000000  -0.000002
     7  O    0.001631  -0.000295  -0.007550   0.011524  -0.000159  -0.000211
     8  O   -0.000006   0.000006   0.000647   0.000003  -0.000002   0.000000
     9  C    0.030981  -0.109383  -0.056778  -0.066559   0.001019   0.012476
    10  C   -0.113280   0.024534   0.432152   0.019713  -0.020750  -0.003906
    11  C    0.505783  -0.005676   0.006150   0.427369   0.002514  -0.035572
    12  C    0.015674   0.487133  -0.029263  -0.005764   0.398189   0.010216
    13  C    4.804816   0.500722  -0.001023  -0.037700   0.003156   0.416364
    14  C    0.500722   4.855850   0.007336   0.012456  -0.020310  -0.038248
    15  H   -0.001023   0.007336   0.543060  -0.000134  -0.003268   0.000047
    16  H   -0.037700   0.012456  -0.000134   0.540646   0.000100  -0.007626
    17  H    0.003156  -0.020310  -0.003268   0.000100   0.528625  -0.000505
    18  H    0.416364  -0.038248   0.000047  -0.007626  -0.000505   0.537618
    19  H   -0.030783   0.411741  -0.000357  -0.000293  -0.003778  -0.004189
    20  C   -0.000018   0.000034   0.000380   0.000009   0.000003   0.000000
    21  C    0.000079  -0.000171  -0.000230  -0.000008   0.000001   0.000000
    22  C    0.000000   0.000000  -0.000526   0.000000   0.000001   0.000000
    23  C   -0.000002   0.000013   0.003183   0.000000  -0.000026   0.000000
    24  C    0.000000   0.000000   0.000043   0.000000   0.000000   0.000000
    25  C    0.000000   0.000000  -0.000139   0.000000   0.000001   0.000000
    26  H    0.000043  -0.000139  -0.005673   0.000001   0.000289   0.000000
    27  H    0.000000   0.000000   0.000001   0.000000   0.000000   0.000000
    28  H    0.000000   0.000001   0.000289   0.000000   0.000025   0.000000
    29  H    0.000000   0.000000   0.000000   0.000000   0.000000   0.000000
    30  H    0.000000   0.000000   0.000000   0.000000   0.000000   0.000000
              19         20         21         22         23         24
     1  C    0.000000   0.028129  -0.002030  -0.000226   0.002642   0.000333
     2  H    0.000000  -0.002383   0.002674   0.000975  -0.000327  -0.000178
     3  H    0.000003   0.008200  -0.003105   0.001884   0.000809   0.000004
     4  C   -0.000001  -0.081547   0.002394  -0.009805  -0.004638  -0.000723
     5  H    0.000001  -0.025736   0.006031   0.004715  -0.003885  -0.000654
     6  H    0.000000   0.006882  -0.002325  -0.000140   0.000252   0.000141
     7  O    0.000016  -0.000609  -0.000007   0.000102  -0.000012  -0.000006
     8  O    0.000000   0.343525  -0.075587  -0.039609   0.010270   0.001631
     9  C   -0.000995  -0.001243  -0.000140   0.000079  -0.000372  -0.000018
    10  C    0.009458  -0.000140  -0.002876  -0.000393  -0.000532   0.000079
    11  C    0.006298   0.000079  -0.000393   0.000000   0.000006   0.000000
    12  C   -0.032168  -0.000372  -0.000532   0.000006   0.000134  -0.000002
    13  C   -0.030783  -0.000018   0.000079   0.000000  -0.000002   0.000000
    14  C    0.411741   0.000034  -0.000171   0.000000   0.000013   0.000000
    15  H   -0.000357   0.000380  -0.000230  -0.000526   0.003183   0.000043
    16  H   -0.000293   0.000009  -0.000008   0.000000   0.000000   0.000000
    17  H   -0.003778   0.000003   0.000001   0.000001  -0.000026   0.000000
    18  H   -0.004189   0.000000   0.000000   0.000000   0.000000   0.000000
    19  H    0.530279   0.000000  -0.000001   0.000000   0.000000   0.000000
    20  C    0.000000   4.967915   0.218725   0.379371   0.109449   0.030981
    21  C   -0.000001   0.218725   5.265400   0.097410   0.309871  -0.113280
    22  C    0.000000   0.379371   0.097410   4.958254  -0.109291   0.505783
    23  C    0.000000   0.109449   0.309871  -0.109291   4.991332   0.015674
    24  C    0.000000   0.030981  -0.113280   0.505783   0.015674   4.804816
    25  C    0.000000  -0.109383   0.024534  -0.005676   0.487133   0.500722
    26  H    0.000000  -0.056778   0.432152   0.006150  -0.029263  -0.001023
    27  H    0.000000  -0.066559   0.019713   0.427369  -0.005764  -0.037700
    28  H    0.000000   0.001019  -0.020750   0.002514   0.398189   0.003156
    29  H    0.000000   0.012476  -0.003906  -0.035572   0.010216   0.416364
    30  H    0.000000  -0.000995   0.009458   0.006298  -0.032168  -0.030783
              25         26         27         28         29         30
     1  C   -0.000454  -0.002694  -0.000451   0.000003   0.000008  -0.000001
     2  H    0.000091   0.000526   0.000284   0.000000  -0.000002   0.000000
     3  H    0.000033  -0.000604   0.000015   0.000006   0.000000   0.000001
     4  C    0.000484   0.003650   0.000195   0.000011   0.000014   0.000000
     5  H    0.000711   0.007166   0.000329  -0.000033  -0.000005   0.000003
     6  H   -0.000047  -0.000483  -0.000214   0.000001   0.000000   0.000000
     7  O    0.000006   0.000647   0.000003  -0.000002   0.000000   0.000000
     8  O   -0.000295  -0.007550   0.011524  -0.000159  -0.000211   0.000016
     9  C    0.000034   0.000380   0.000009   0.000003   0.000000   0.000000
    10  C   -0.000171  -0.000230  -0.000008   0.000001   0.000000  -0.000001
    11  C    0.000000  -0.000526   0.000000   0.000001   0.000000   0.000000
    12  C    0.000013   0.003183   0.000000  -0.000026   0.000000   0.000000
    13  C    0.000000   0.000043   0.000000   0.000000   0.000000   0.000000
    14  C    0.000000  -0.000139   0.000000   0.000001   0.000000   0.000000
    15  H   -0.000139  -0.005673   0.000001   0.000289   0.000000   0.000000
    16  H    0.000000   0.000001   0.000000   0.000000   0.000000   0.000000
    17  H    0.000001   0.000289   0.000000   0.000025   0.000000   0.000000
    18  H    0.000000   0.000000   0.000000   0.000000   0.000000   0.000000
    19  H    0.000000   0.000000   0.000000   0.000000   0.000000   0.000000
    20  C   -0.109383  -0.056778  -0.066559   0.001019   0.012476  -0.000995
    21  C    0.024534   0.432152   0.019713  -0.020750  -0.003906   0.009458
    22  C   -0.005676   0.006150   0.427369   0.002514  -0.035572   0.006298
    23  C    0.487133  -0.029263  -0.005764   0.398189   0.010216  -0.032168
    24  C    0.500722  -0.001023  -0.037700   0.003156   0.416364  -0.030783
    25  C    4.855850   0.007336   0.012456  -0.020310  -0.038248   0.411741
    26  H    0.007336   0.543060  -0.000134  -0.003268   0.000047  -0.000357
    27  H    0.012456  -0.000134   0.540646   0.000100  -0.007626  -0.000293
    28  H   -0.020310  -0.003268   0.000100   0.528625  -0.000505  -0.003778
    29  H   -0.038248   0.000047  -0.007626  -0.000505   0.537618  -0.004189
    30  H    0.411741  -0.000357  -0.000293  -0.003778  -0.004189   0.530279
 Mulliken charges:
               1
     1  C   -0.012812
     2  H    0.103725
     3  H    0.092739
     4  C   -0.012812
     5  H    0.092739
     6  H    0.103725
     7  O   -0.248152
     8  O   -0.248152
     9  C    0.238584
    10  C   -0.163104
    11  C   -0.189674
    12  C   -0.152893
    13  C   -0.095362
    14  C   -0.126426
    15  H    0.104091
    16  H    0.106105
    17  H    0.114887
    18  H    0.113522
    19  H    0.114769
    20  C    0.238584
    21  C   -0.163104
    22  C   -0.189674
    23  C   -0.152893
    24  C   -0.095362
    25  C   -0.126426
    26  H    0.104091
    27  H    0.106105
    28  H    0.114887
    29  H    0.113522
    30  H    0.114769
 Sum of Mulliken charges =   0.00000
 Mulliken charges with hydrogens summed into heavy atoms:
               1
     1  C    0.183653
     4  C    0.183653
     7  O   -0.248152
     8  O   -0.248152
     9  C    0.238584
    10  C   -0.059013
    11  C   -0.083569
    12  C   -0.038006
    13  C    0.018160
    14  C   -0.011657
    20  C    0.238584
    21  C   -0.059013
    22  C   -0.083569
    23  C   -0.038006
    24  C    0.018160
    25  C   -0.011657
 Electronic spatial extent (au):  <R**2>=           4698.9622
 Charge=              0.0000 electrons
 Dipole moment (field-independent basis, Debye):
    X=              0.0000    Y=              0.0000    Z=              0.5884  Tot=              0.5884
 Quadrupole moment (field-independent basis, Debye-Ang):
   XX=            -98.5110   YY=            -89.7456   ZZ=            -88.3625
   XY=             -5.2347   XZ=              0.0000   YZ=              0.0000
 Traceless Quadrupole moment (field-independent basis, Debye-Ang):
   XX=             -6.3047   YY=              2.4608   ZZ=              3.8439
   XY=             -5.2347   XZ=              0.0000   YZ=              0.0000
 Octapole moment (field-independent basis, Debye-Ang**2):
  XXX=              0.0000  YYY=              0.0000  ZZZ=             -2.3015  XYY=              0.0000
  XXY=              0.0000  XXZ=            -12.2379  XZZ=              0.0000  YZZ=              0.0000
  YYZ=              1.0957  XYZ=             -0.3269
 Hexadecapole moment (field-independent basis, Debye-Ang**3):
 XXXX=           -226.0621 YYYY=          -4695.7807 ZZZZ=          -1060.8343 XXXY=             39.6660
 XXXZ=              0.0000 YYYX=           -120.0501 YYYZ=              0.0000 ZZZX=              0.0000
 ZZZY=              0.0000 XXYY=           -976.1246 XXZZ=           -233.9336 YYZZ=           -988.5030
 XXYZ=              0.0000 YYXZ=              0.0000 ZZXY=             -9.7485
 N-N= 1.013357799456D+03 E-N=-3.637723860996D+03  KE= 6.885842542147D+02
 Symmetry A    KE= 3.456889197299D+02
 Symmetry B    KE= 3.428953344848D+02
 No NMR shielding tensors so no spin-rotation constants.
 Leave Link  601 at Fri May 17 10:23:05 2024, MaxMem=  6291456000 cpu:        54.1
 (Enter /home/madghost/g09/l607.exe)
 ******************************Gaussian NBO Version 3.1******************************
             N A T U R A L   A T O M I C   O R B I T A L   A N D
          N A T U R A L   B O N D   O R B I T A L   A N A L Y S I S
 ******************************Gaussian NBO Version 3.1******************************

       /RESON  / : Allow strongly delocalized NBO set
       /E2PERT / : Analyze NBO Fock matrix
                   Print threshold set to  0.05
       /PLOT   / : Write information for the orbital plotter
       /ARCHIVE/ : Write the archive file to LFN 47
       /BNDIDX / : Print bond indices based on the NAO density matrix
       /FILE   / : Set to JOB52                                               

 Analyzing the SCF density

 Job title: c2h                                                             

 Storage needed:   1440014 in NPA,   1918463 in NBO,   1440952 in NLMO (6291451200 available)


 NATURAL POPULATIONS:  Natural atomic orbital occupancies 
                                                          
   NAO  Atom  No  lang   Type(AO)    Occupancy      Energy
 ----------------------------------------------------------
     1    C    1  S      Cor( 1S)     1.99922     -10.15688
     2    C    1  S      Val( 2S)     1.04232      -0.30640
     3    C    1  S      Ryd( 3S)     0.00229       1.35824
     4    C    1  S      Ryd( 4S)     0.00038       2.12107
     5    C    1  S      Ryd( 5S)     0.00000      21.70266
     6    C    1  px     Val( 2p)     1.09123      -0.12077
     7    C    1  px     Ryd( 3p)     0.00058       0.97441
     8    C    1  px     Ryd( 4p)     0.00035       1.63166
     9    C    1  py     Val( 2p)     0.74940      -0.09124
    10    C    1  py     Ryd( 3p)     0.00372       1.12697
    11    C    1  py     Ryd( 4p)     0.00019       1.42280
    12    C    1  pz     Val( 2p)     1.20684      -0.13321
    13    C    1  pz     Ryd( 3p)     0.00229       1.21378
    14    C    1  pz     Ryd( 4p)     0.00043       1.69908
    15    C    1  dxy    Ryd( 3d)     0.00193       1.70435
    16    C    1  dxy    Ryd( 4d)     0.00016       3.20018
    17    C    1  dxz    Ryd( 3d)     0.00126       1.69766
    18    C    1  dxz    Ryd( 4d)     0.00017       3.31915
    19    C    1  dyz    Ryd( 3d)     0.00116       1.58286
    20    C    1  dyz    Ryd( 4d)     0.00022       3.09715
    21    C    1  dx2y2  Ryd( 3d)     0.00086       1.96563
    22    C    1  dx2y2  Ryd( 4d)     0.00033       3.63395
    23    C    1  dz2    Ryd( 3d)     0.00126       1.79953
    24    C    1  dz2    Ryd( 4d)     0.00019       3.45651
    25    C    1  f(0)   Ryd( 4f)     0.00002       3.85271
    26    C    1  f(C1)  Ryd( 4f)     0.00011       3.95759
    27    C    1  f(S1)  Ryd( 4f)     0.00006       3.81006
    28    C    1  f(C2)  Ryd( 4f)     0.00002       4.02300
    29    C    1  f(S2)  Ryd( 4f)     0.00001       3.79060
    30    C    1  f(C3)  Ryd( 4f)     0.00005       4.00483
    31    C    1  f(S3)  Ryd( 4f)     0.00010       3.91867

    32    H    2  S      Val( 1S)     0.79619      -0.00284
    33    H    2  S      Ryd( 2S)     0.00056       1.06174
    34    H    2  S      Ryd( 3S)     0.00012       1.48120
    35    H    2  px     Ryd( 3p)     0.00020       4.04482
    36    H    2  px     Ryd( 2p)     0.00017       2.29796
    37    H    2  py     Ryd( 3p)     0.00006       3.98118
    38    H    2  py     Ryd( 2p)     0.00014       2.19131
    39    H    2  pz     Ryd( 3p)     0.00046       4.18604
    40    H    2  pz     Ryd( 2p)     0.00011       2.76520
    41    H    2  dxy    Ryd( 3d)     0.00001       3.80181
    42    H    2  dxz    Ryd( 3d)     0.00007       4.29077
    43    H    2  dyz    Ryd( 3d)     0.00003       4.01206
    44    H    2  dx2y2  Ryd( 3d)     0.00002       3.85581
    45    H    2  dz2    Ryd( 3d)     0.00005       4.28596

    46    H    3  S      Val( 1S)     0.81615      -0.01244
    47    H    3  S      Ryd( 2S)     0.00179       0.57959
    48    H    3  S      Ryd( 3S)     0.00027       2.32825
    49    H    3  px     Ryd( 2p)     0.00022       2.99237
    50    H    3  px     Ryd( 3p)     0.00007       3.63635
    51    H    3  py     Ryd( 2p)     0.00022       2.72708
    52    H    3  py     Ryd( 3p)     0.00008       3.57484
    53    H    3  pz     Ryd( 2p)     0.00013       3.17581
    54    H    3  pz     Ryd( 3p)     0.00016       3.66300
    55    H    3  dxy    Ryd( 3d)     0.00001       3.90983
    56    H    3  dxz    Ryd( 3d)     0.00003       4.32169
    57    H    3  dyz    Ryd( 3d)     0.00003       3.99540
    58    H    3  dx2y2  Ryd( 3d)     0.00004       3.88805
    59    H    3  dz2    Ryd( 3d)     0.00004       4.20743

    60    C    4  S      Cor( 1S)     1.99922     -10.15688
    61    C    4  S      Val( 2S)     1.04232      -0.30640
    62    C    4  S      Ryd( 3S)     0.00229       1.35824
    63    C    4  S      Ryd( 4S)     0.00038       2.12107
    64    C    4  S      Ryd( 5S)     0.00000      21.70266
    65    C    4  px     Val( 2p)     1.09123      -0.12077
    66    C    4  px     Ryd( 3p)     0.00058       0.97441
    67    C    4  px     Ryd( 4p)     0.00035       1.63166
    68    C    4  py     Val( 2p)     0.74940      -0.09124
    69    C    4  py     Ryd( 3p)     0.00372       1.12697
    70    C    4  py     Ryd( 4p)     0.00019       1.42280
    71    C    4  pz     Val( 2p)     1.20684      -0.13321
    72    C    4  pz     Ryd( 3p)     0.00229       1.21378
    73    C    4  pz     Ryd( 4p)     0.00043       1.69908
    74    C    4  dxy    Ryd( 3d)     0.00193       1.70435
    75    C    4  dxy    Ryd( 4d)     0.00016       3.20018
    76    C    4  dxz    Ryd( 3d)     0.00126       1.69766
    77    C    4  dxz    Ryd( 4d)     0.00017       3.31915
    78    C    4  dyz    Ryd( 3d)     0.00116       1.58286
    79    C    4  dyz    Ryd( 4d)     0.00022       3.09715
    80    C    4  dx2y2  Ryd( 3d)     0.00086       1.96563
    81    C    4  dx2y2  Ryd( 4d)     0.00033       3.63395
    82    C    4  dz2    Ryd( 3d)     0.00126       1.79953
    83    C    4  dz2    Ryd( 4d)     0.00019       3.45651
    84    C    4  f(0)   Ryd( 4f)     0.00002       3.85271
    85    C    4  f(C1)  Ryd( 4f)     0.00011       3.95759
    86    C    4  f(S1)  Ryd( 4f)     0.00006       3.81006
    87    C    4  f(C2)  Ryd( 4f)     0.00002       4.02300
    88    C    4  f(S2)  Ryd( 4f)     0.00001       3.79060
    89    C    4  f(C3)  Ryd( 4f)     0.00005       4.00483
    90    C    4  f(S3)  Ryd( 4f)     0.00010       3.91867

    91    H    5  S      Val( 1S)     0.81615      -0.01244
    92    H    5  S      Ryd( 2S)     0.00179       0.57959
    93    H    5  S      Ryd( 3S)     0.00027       2.32825
    94    H    5  px     Ryd( 2p)     0.00022       2.99237
[...]
   20      25      29     0.0038659       0.1989787
   20      25      30     0.0672324       0.0718986
   20      25      31    -0.0032712      -0.0316267
   20      25      33    -0.0668932      -0.0443366
   20      25      34    -0.0036098      -0.0199360
   20      25      36    -0.0033443      -0.0162887
   20      25      57     0.0124568       0.0393732
   20      26      26    -0.0027760      -0.1165463
   20      26      28     0.0061824       0.0542818
   20      27      24    -0.0024073      -0.1234242
   20      27      31     0.0071415       0.0311982
   20      28      24     0.0024299       0.0633308
   20      28      34    -0.0036098      -0.0015396
   20      29      26     0.0024688       0.0543573
   20      29      36    -0.0033443      -0.0044678
   20      30      27     0.0026853       0.0535547
   20      30      29     0.0026100       0.0604442
   21      22      24     0.0041441       0.1505005
   21      22      25     0.0701372       0.1157309
   21      22      26     0.0038074       0.2171384
   21      22      28    -0.0033089      -0.0788926
   21      22      30    -0.0395240      -0.0732088
   21      22      31    -0.0037912      -0.0561894
   21      22      33    -0.0503560      -0.0866263
   21      22      37    -0.0031723      -0.0805285
   21      22      56    -0.0026451      -0.3428191
   21      22      57     0.0187428       0.0646649
   21      23      24     0.0044332       0.2547769
   21      23      25     0.1566188       0.4198606
   21      23      27     0.9765072       0.8037597
   21      23      28     0.0051255       0.2611072
   21      23      30     0.0395240       0.3326452
   21      23      32     0.0040296       0.3083918
   21      23      33     0.0625447       0.4369162
   21      23      34     0.0060522       0.1888687
   21      23      37    -0.0034577      -0.4157002
   21      24      25    -0.0653627      -0.0439051
   21      24      26     0.0038074       0.1474977
   21      24      30    -0.0395240      -0.0399846
   21      24      31    -0.0037912      -0.0466312
   21      24      32     0.0040131       0.2227211
   21      24      33     0.0625447       0.0789269
   21      24      34    -0.0031828      -0.0584911
   21      24      37    -0.0034577      -0.0495726
   21      25      25    -0.0528154      -0.0698263
   21      25      27     0.0039166       0.2221584
   21      25      28    -0.0029242      -0.0696415
   21      25      30    -0.0395240      -0.0846751
   21      25      31    -0.0032712      -0.0606891
   21      25      32     0.0040296       0.2191903
   21      25      33     0.0625447       0.1202078
   21      25      34     0.0058475       0.3157614
   21      25      37    -0.0034577      -0.0665086
   21      25      57    -0.0124568      -0.0594230
   21      26      26    -0.0027760      -0.4796942
   21      26      28     0.7688379       0.8158763
   21      26      32    -0.0027540      -0.5241293
   21      27      24    -0.0024073      -0.0071974
   21      27      31     0.0037912       0.0002235
   21      28      24    -0.0024299      -0.1211930
   21      28      34     0.0060522       0.0498439
   21      29      26     0.0024688       0.0438321
   21      29      32     0.0027547       0.0675178
   21      30      27     0.0026853       0.0707892
   21      30      37    -0.0034577      -0.0021404
   22      23      24     0.0041441       0.1247481
   22      23      25     0.0701372       0.0735976
   22      23      28    -0.0033089      -0.0747734
   22      23      30    -0.0662283      -0.0414654
   22      23      33    -0.0503560      -0.0383444
   22      23      35     0.0041907       0.2296999
   22      23      36    -0.0031046      -0.0532987
   22      23      37    -0.0031723      -0.0496642
   22      24      25    -0.0653627      -0.3736343
   22      24      26     0.0038854       0.2784600
   22      24      29     0.9813703       0.8091217
   22      24      30     0.7697099       0.4054934
   22      24      31     0.0061812       0.1285363
   22      24      33    -0.0503560      -0.3536681
   22      24      35     0.0042332       0.3127808
   22      24      36     0.0060424       0.1826024
   22      24      37    -0.0031723      -0.4143415
   22      25      25    -0.0528154      -0.0794906
   22      25      28    -0.0029242      -0.0648592
   22      25      29     0.0038659       0.2175222
   22      25      30     0.0672324       0.1146317
   22      25      31    -0.0032712      -0.0648254
   22      25      33    -0.0503560      -0.0694387
   22      25      35     0.0042332       0.2114944
   22      25      36     0.0057659       0.3011620
   22      25      37    -0.0031723      -0.0639992
   22      25      57    -0.0124568      -0.0580231
   22      26      26    -0.0027760      -0.0063799
   22      26      28     0.0033089       0.0048261
   22      27      24    -0.0024073      -0.4654308
   22      27      31     0.7633136       0.8105847
   22      27      35    -0.0028350      -0.5238381
   22      28      24     0.0024299       0.0494610
   22      28      35     0.0028669       0.0701470
   22      29      26    -0.0024688      -0.1178347
   22      29      36     0.0060424       0.0426716
   22      30      29     0.0026100       0.0663185
   22      30      37     0.0031723       0.0003277
   23      24      25    -0.0653627      -0.0888478
   23      24      30    -0.0662283      -0.0793603
   23      24      32     0.0040131       0.2384062
   23      24      33     0.1494770       0.1155430
   23      24      34    -0.0031828      -0.0715925
   23      24      35     0.0041907       0.2421135
   23      24      36    -0.0031046      -0.0724613
   23      24      37     0.0058106       0.2835448
   23      25      25    -0.0528154      -0.3520966
   23      25      27     0.0039166       0.3169322
   23      25      28    -0.0029242      -0.3828485
   23      25      30    -0.0662283      -0.3726678
   23      25      32     0.9888133       0.8070110
   23      25      33     0.7642579       0.4079581
   23      25      34     0.0058475       0.1557323
   23      25      35     0.0041907       0.3439157
   23      25      36    -0.0031046      -0.4130321
   23      25      37     0.0062977       0.1539812
   23      26      28     0.0051255       0.1140964
   23      26      32    -0.0027540      -0.1184707
   23      27      24     0.0024073       0.0052852
   23      27      35     0.0028350       0.0216905
   23      28      24    -0.0024299      -0.5419714
   23      28      34     0.7745822       0.8098609
   23      28      35    -0.0028669      -0.5706711
   23      29      32     0.0027547       0.0666689
   23      29      36    -0.0031046      -0.0028932
   23      30      27    -0.0026853      -0.1167495
   23      30      37     0.0062977       0.0255389
   24      25      25     0.0528154       0.3285570
   24      25      29     0.0038659       0.3213630
   24      25      30     0.0672324       0.4297162
   24      25      31    -0.0032712      -0.4184217
   24      25      32     0.0040131       0.3330829
   24      25      33     0.1494770       0.4194509
   24      25      34    -0.0031828      -0.4224258
   24      25      35     0.9904084       0.8064972
   24      25      36     0.0057659       0.1549557
   24      25      37     0.0058106       0.1433196
   24      26      26     0.0027760       0.0056656
   24      26      32     0.0027540       0.0251893
   24      27      31     0.0061812       0.0222081
   24      27      35    -0.0028350      -0.1157580
   24      28      34    -0.0031828      -0.0048172
   24      28      35     0.0028669       0.0673441
   24      29      26    -0.0024688      -0.5603323
   24      29      32    -0.0027547      -0.5713765
   24      29      36     0.7732701       0.8105316
   24      30      29    -0.0026100      -0.1161205
   24      30      37     0.0058106       0.0164796
   25      26      28     0.0029242       0.0076761
   25      26      32     0.0027540       0.0134249
   25      27      31     0.0032712       0.0018548
   25      27      35     0.0028350       0.0090097
   25      28      34     0.0058475       0.0205483
   25      28      35    -0.0028669      -0.1139250
   25      29      32    -0.0027547      -0.1125873
   25      29      36     0.0057659       0.0208455
   25      30      27    -0.0026853      -0.5831171
   25      30      29    -0.0026100      -0.5808407
   25      30      37     0.7726205       0.8110008
   26      29      26    -0.0024688      -0.0012370
   26      29      32    -0.0027540      -0.0004800
   27      28      24    -0.0024073      -0.0016100
   27      28      35    -0.0028350      -0.0006784


 Atom-Atom Net Linear NLMO/NPA Bond Orders:                                    

     Atom    1       2       3       4       5       6       7       8       9
     ---- ------  ------  ------  ------  ------  ------  ------  ------  ------
   1.  C  0.0000  0.7750  0.7819  0.9868 -0.0074 -0.0012  0.6921 -0.0090  0.0192
   2.  H  0.7750  0.0000 -0.0034 -0.0012 -0.0004 -0.0007 -0.0110  0.0031  0.0060
   3.  H  0.7819 -0.0034  0.0000 -0.0074 -0.0008 -0.0004 -0.0144 -0.0033 -0.0091
   4.  C  0.9868 -0.0012 -0.0074  0.0000  0.7819  0.7750 -0.0090  0.6921 -0.0112
   5.  H -0.0074 -0.0004 -0.0008  0.7819  0.0000 -0.0034 -0.0033 -0.0144  0.0026
   6.  H -0.0012 -0.0007 -0.0004  0.7750 -0.0034  0.0000  0.0031 -0.0110 -0.0020
   7.  O  0.6921 -0.0110 -0.0144 -0.0090 -0.0033  0.0031  0.0000  0.0066  0.7457
   8.  O -0.0090  0.0031 -0.0033  0.6921 -0.0144 -0.0110  0.0066  0.0000  0.0008
   9.  C  0.0192  0.0060 -0.0091 -0.0112  0.0026 -0.0020  0.7457  0.0008  0.0000
  10.  C -0.0240  0.0067 -0.0005  0.0107 -0.0011 -0.0010 -0.0392 -0.0019  1.5511
  11.  C -0.0045  0.0035 -0.0090  0.0145 -0.0009  0.0005 -0.0243 -0.0025  1.2317
  12.  C -0.0006 -0.0010 -0.0002  0.0009 -0.0008  0.0000  0.0058 -0.0006  0.0313
  13.  C -0.0071 -0.0027  0.0018  0.0019 -0.0010 -0.0001  0.0091 -0.0019  0.0261
  14.  C  0.0114  0.0025 -0.0062 -0.0110 -0.0011  0.0000  0.0217  0.0011 -0.0465
  15.  H -0.0037  0.0016  0.0011 -0.0009 -0.0001 -0.0007  0.0005 -0.0007  0.0023
  16.  H  0.0018  0.0007 -0.0003  0.0002  0.0000  0.0003  0.0002  0.0000  0.0033
  17.  H  0.0016  0.0005  0.0009 -0.0001 -0.0001 -0.0003 -0.0006 -0.0001  0.0010
  18.  H -0.0018  0.0002 -0.0002  0.0001 -0.0001  0.0001 -0.0043  0.0002  0.0012
  19.  H  0.0006  0.0001  0.0001  0.0001  0.0001 -0.0001  0.0052  0.0000  0.0065
  20.  C -0.0112 -0.0020  0.0026  0.0192 -0.0091  0.0060  0.0008  0.7457  0.0002
  21.  C  0.0107 -0.0010 -0.0011 -0.0240 -0.0005  0.0067 -0.0019 -0.0392  0.0009
  22.  C  0.0145  0.0005 -0.0009 -0.0045 -0.0090  0.0035 -0.0025 -0.0243  0.0001
  23.  C  0.0009  0.0000 -0.0008 -0.0006 -0.0002 -0.0010 -0.0006  0.0058 -0.0001
  24.  C  0.0019 -0.0001 -0.0010 -0.0071  0.0018 -0.0027 -0.0019  0.0091  0.0000
  25.  C -0.0110  0.0000 -0.0011  0.0114 -0.0062  0.0025  0.0011  0.0217 -0.0007
  26.  H -0.0009 -0.0007 -0.0001 -0.0037  0.0011  0.0016 -0.0007  0.0005  0.0000
  27.  H  0.0002  0.0003  0.0000  0.0018 -0.0003  0.0007  0.0000  0.0002  0.0003
  28.  H -0.0001 -0.0003 -0.0001  0.0016  0.0009  0.0005 -0.0001 -0.0006 -0.0003
  29.  H  0.0001  0.0001 -0.0001 -0.0018 -0.0002  0.0002  0.0002 -0.0043 -0.0001
  30.  H  0.0001 -0.0001  0.0001  0.0006  0.0001  0.0001  0.0000  0.0052 -0.0001

     Atom   10      11      12      13      14      15      16      17      18
     ---- ------  ------  ------  ------  ------  ------  ------  ------  ------
   1.  C -0.0240 -0.0045 -0.0006 -0.0071  0.0114 -0.0037  0.0018  0.0016 -0.0018
   2.  H  0.0067  0.0035 -0.0010 -0.0027  0.0025  0.0016  0.0007  0.0005  0.0002
   3.  H -0.0005 -0.0090 -0.0002  0.0018 -0.0062  0.0011 -0.0003  0.0009 -0.0002
   4.  C  0.0107  0.0145  0.0009  0.0019 -0.0110 -0.0009  0.0002 -0.0001  0.0001
   5.  H -0.0011 -0.0009 -0.0008 -0.0010 -0.0011 -0.0001  0.0000 -0.0001 -0.0001
   6.  H -0.0010  0.0005  0.0000 -0.0001  0.0000 -0.0007  0.0003 -0.0003  0.0001
   7.  O -0.0392 -0.0243  0.0058  0.0091  0.0217  0.0005  0.0002 -0.0006 -0.0043
   8.  O -0.0019 -0.0025 -0.0006 -0.0019  0.0011 -0.0007  0.0000 -0.0001  0.0002
   9.  C  1.5511  1.2317  0.0313  0.0261 -0.0465  0.0023  0.0033  0.0010  0.0012
  10.  C  0.0000 -0.0063  1.2483 -0.0443 -0.0397  0.7601  0.0034  0.0021  0.0069
  11.  C -0.0063  0.0000 -0.0477  1.6511 -0.0453  0.0034  0.7568  0.0073  0.0017
  12.  C  1.2483 -0.0477  0.0000  0.0252  1.6464  0.0013  0.0070  0.7677  0.0014
  13.  C -0.0443  1.6511  0.0252  0.0000  1.2703  0.0067  0.0028  0.0010  0.7666
  14.  C -0.0397 -0.0453  1.6464  1.2703  0.0000  0.0086  0.0090  0.0020  0.0010
  15.  H  0.7601  0.0034  0.0013  0.0067  0.0086  0.0000  0.0003 -0.0026 -0.0057
  16.  H  0.0034  0.7568  0.0070  0.0028  0.0090  0.0003  0.0000 -0.0057 -0.0018
  17.  H  0.0021  0.0073  0.7677  0.0010  0.0020 -0.0026 -0.0057  0.0000 -0.0029
  18.  H  0.0069  0.0017  0.0014  0.7666  0.0010 -0.0057 -0.0018 -0.0029  0.0000
  19.  H  0.0010  0.0074  0.0027  0.0024  0.7660  0.0015  0.0012 -0.0032 -0.0033
  20.  C  0.0009  0.0001 -0.0001  0.0000 -0.0007  0.0000  0.0003 -0.0003 -0.0001
  21.  C  0.0004  0.0012 -0.0007  0.0011  0.0003 -0.0020 -0.0002  0.0003  0.0001
  22.  C  0.0012  0.0002 -0.0002  0.0003  0.0000 -0.0006  0.0000 -0.0001  0.0000
  23.  C -0.0007 -0.0002 -0.0005  0.0000  0.0000 -0.0008  0.0002 -0.0001 -0.0001
  24.  C  0.0011  0.0003  0.0000  0.0002  0.0000  0.0003  0.0000 -0.0001  0.0000
  25.  C  0.0003  0.0000  0.0000  0.0000 -0.0001  0.0005  0.0000  0.0000  0.0000
  26.  H -0.0020 -0.0006 -0.0008  0.0003  0.0005  0.0010  0.0000 -0.0002  0.0002
  27.  H -0.0002  0.0000  0.0002  0.0000  0.0000  0.0000  0.0000  0.0000  0.0000
  28.  H  0.0003 -0.0001 -0.0001 -0.0001  0.0000 -0.0002  0.0000  0.0000  0.0000
  29.  H  0.0001  0.0000 -0.0001  0.0000  0.0000  0.0002  0.0000  0.0000  0.0000
  30.  H  0.0002  0.0000  0.0001  0.0000  0.0000 -0.0003  0.0000  0.0000  0.0000

     Atom   19      20      21      22      23      24      25      26      27
     ---- ------  ------  ------  ------  ------  ------  ------  ------  ------
   1.  C  0.0006 -0.0112  0.0107  0.0145  0.0009  0.0019 -0.0110 -0.0009  0.0002
   2.  H  0.0001 -0.0020 -0.0010  0.0005  0.0000 -0.0001  0.0000 -0.0007  0.0003
   3.  H  0.0001  0.0026 -0.0011 -0.0009 -0.0008 -0.0010 -0.0011 -0.0001  0.0000
   4.  C  0.0001  0.0192 -0.0240 -0.0045 -0.0006 -0.0071  0.0114 -0.0037  0.0018
   5.  H  0.0001 -0.0091 -0.0005 -0.0090 -0.0002  0.0018 -0.0062  0.0011 -0.0003
   6.  H -0.0001  0.0060  0.0067  0.0035 -0.0010 -0.0027  0.0025  0.0016  0.0007
   7.  O  0.0052  0.0008 -0.0019 -0.0025 -0.0006 -0.0019  0.0011 -0.0007  0.0000
   8.  O  0.0000  0.7457 -0.0392 -0.0243  0.0058  0.0091  0.0217  0.0005  0.0002
   9.  C  0.0065  0.0002  0.0009  0.0001 -0.0001  0.0000 -0.0007  0.0000  0.0003
  10.  C  0.0010  0.0009  0.0004  0.0012 -0.0007  0.0011  0.0003 -0.0020 -0.0002
  11.  C  0.0074  0.0001  0.0012  0.0002 -0.0002  0.0003  0.0000 -0.0006  0.0000
  12.  C  0.0027 -0.0001 -0.0007 -0.0002 -0.0005  0.0000  0.0000 -0.0008  0.0002
  13.  C  0.0024  0.0000  0.0011  0.0003  0.0000  0.0002  0.0000  0.0003  0.0000
  14.  C  0.7660 -0.0007  0.0003  0.0000  0.0000  0.0000 -0.0001  0.0005  0.0000
  15.  H  0.0015  0.0000 -0.0020 -0.0006 -0.0008  0.0003  0.0005  0.0010  0.0000
  16.  H  0.0012  0.0003 -0.0002  0.0000  0.0002  0.0000  0.0000  0.0000  0.0000
  17.  H -0.0032 -0.0003  0.0003 -0.0001 -0.0001 -0.0001  0.0000 -0.0002  0.0000
  18.  H -0.0033 -0.0001  0.0001  0.0000 -0.0001  0.0000  0.0000  0.0002  0.0000
  19.  H  0.0000 -0.0001  0.0002  0.0000  0.0001  0.0000  0.0000 -0.0003  0.0000
  20.  C -0.0001  0.0000  1.5511  1.2317  0.0313  0.0261 -0.0465  0.0023  0.0033
  21.  C  0.0002  1.5511  0.0000 -0.0063  1.2483 -0.0443 -0.0397  0.7601  0.0034
  22.  C  0.0000  1.2317 -0.0063  0.0000 -0.0477  1.6511 -0.0453  0.0034  0.7568
  23.  C  0.0001  0.0313  1.2483 -0.0477  0.0000  0.0252  1.6464  0.0013  0.0070
  24.  C  0.0000  0.0261 -0.0443  1.6511  0.0252  0.0000  1.2703  0.0067  0.0028
  25.  C  0.0000 -0.0465 -0.0397 -0.0453  1.6464  1.2703  0.0000  0.0086  0.0090
  26.  H -0.0003  0.0023  0.7601  0.0034  0.0013  0.0067  0.0086  0.0000  0.0003
  27.  H  0.0000  0.0033  0.0034  0.7568  0.0070  0.0028  0.0090  0.0003  0.0000
  28.  H  0.0000  0.0010  0.0021  0.0073  0.7677  0.0010  0.0020 -0.0026 -0.0057
  29.  H  0.0000  0.0012  0.0069  0.0017  0.0014  0.7666  0.0010 -0.0057 -0.0018
  30.  H  0.0000  0.0065  0.0010  0.0074  0.0027  0.0024  0.7660  0.0015  0.0012

     Atom   28      29      30
     ---- ------  ------  ------
   1.  C -0.0001  0.0001  0.0001
   2.  H -0.0003  0.0001 -0.0001
   3.  H -0.0001 -0.0001  0.0001
   4.  C  0.0016 -0.0018  0.0006
   5.  H  0.0009 -0.0002  0.0001
   6.  H  0.0005  0.0002  0.0001
   7.  O -0.0001  0.0002  0.0000
   8.  O -0.0006 -0.0043  0.0052
   9.  C -0.0003 -0.0001 -0.0001
  10.  C  0.0003  0.0001  0.0002
  11.  C -0.0001  0.0000  0.0000
  12.  C -0.0001 -0.0001  0.0001
  13.  C -0.0001  0.0000  0.0000
  14.  C  0.0000  0.0000  0.0000
  15.  H -0.0002  0.0002 -0.0003
  16.  H  0.0000  0.0000  0.0000
  17.  H  0.0000  0.0000  0.0000
  18.  H  0.0000  0.0000  0.0000
  19.  H  0.0000  0.0000  0.0000
  20.  C  0.0010  0.0012  0.0065
  21.  C  0.0021  0.0069  0.0010
  22.  C  0.0073  0.0017  0.0074
  23.  C  0.7677  0.0014  0.0027
  24.  C  0.0010  0.7666  0.0024
  25.  C  0.0020  0.0010  0.7660
  26.  H -0.0026 -0.0057  0.0015
  27.  H -0.0057 -0.0018  0.0012
  28.  H  0.0000 -0.0029 -0.0032
  29.  H -0.0029  0.0000 -0.0033
  30.  H -0.0032 -0.0033  0.0000


 Linear NLMO/NPA Bond Orders, Totals by Atom:                                  

     Atom    1
     ---- ------
   1.  C  3.2165
   2.  H  0.7762
   3.  H  0.7282
   4.  C  3.2165
   5.  H  0.7282
   6.  H  0.7762
   7.  O  1.3784
   8.  O  1.3784
   9.  C  3.5601
  10.  C  3.4340
  11.  C  3.5383
  12.  C  3.6847
  13.  C  3.7101
  14.  C  3.5902
  15.  H  0.7711
  16.  H  0.7795
  17.  H  0.7680
  18.  H  0.7595
  19.  H  0.7883
  20.  C  3.5601
  21.  C  3.4340
  22.  C  3.5383
  23.  C  3.6847
  24.  C  3.7101
  25.  C  3.5902
  26.  H  0.7711
  27.  H  0.7795
  28.  H  0.7680
  29.  H  0.7595
  30.  H  0.7883
 Leave Link  607 at Fri May 17 10:23:37 2024, MaxMem=  6291456000 cpu:       765.7
 Internal input file was deleted!
 Error termination via Lnk1e at Fri May 17 10:23:38 2024.
May-2024\0\\#P PB
 E1PBE/GEN pop=nboread\\c2h\\0,1\C,0,0.686586,0.326933,-1.609285\H,0,1.
 218082,0.042612,-2.518421\H,0,1.286831,-0.009496,-0.758976\C,0,-0.6865
 86,-0.326933,-1.609285\H,0,-1.286831,0.009496,-0.758976\H,0,-1.218082,
 -0.042612,-2.518421\O,0,0.570221,1.731041,-1.654967\O,0,-0.570221,-1.7
 31041,-1.654967\C,0,0.306088,2.418625,-0.514245\C,0,0.390095,1.889313,
 0.768902\C,0,-0.045561,3.755497,-0.686411\C,0,0.116796,2.699844,1.8638
 11\C,0,-0.31235,4.549684,0.412339\C,0,-0.236375,4.027405,1.697901\H,0,
 0.678032,0.859938,0.932791\H,0,-0.102428,4.148748,-1.694251\H,0,0.1866
 68,2.276974,2.859724\H,0,-0.585175,5.58819,0.263055\H,0,-0.448768,4.65
 0664,2.557746\C,0,-0.306088,-2.418625,-0.514245\C,0,-0.390095,-1.88931
 3,0.768902\C,0,0.045561,-3.755497,-0.686411\C,0,-0.116796,-2.699844,1.
 863811\C,0,0.31235,-4.549684,0.412339\C,0,0.236375,-4.027405,1.697901\
 H,0,-0.678032,-0.859938,0.932791\H,0,0.102428,-4.148748,-1.694251\H,0,
 -0.186668,-2.276974,2.859724\H,0,0.585175,-5.58819,0.263055\H,0,0.4487
 68,-4.650664,2.557746\\Version=EM64L-G09RevD.01\State=1-A\HF=-691.7915
 523\RMSD=5.757e-09\Dipole=0.,0.,0.231493\Quadrupole=-4.7707616,1.91292
 2,2.8578396,-3.8204936,0.,0.\PG=C02 [X(C14H14O2)]\\@


 BOOKS ARE LIGHTHOUSES ERECTED IN THE GREAT SEA OF TIME.
     -- E.P.WHIPPLE
 Job cpu time:       0 days  1 hours 32 minutes 12.8 seconds.
 File lengths (MBytes):  RWF=    266 Int=      0 D2E=      0 Chk=     18 Scr=      1
 Normal termination of Gaussian 09 at Fri May 17 10:23:38 2024.
