 Entering Gaussian System, Link 0=/home/madghost/g09/g09
 Input=job62.gjf
 Output=job62.log
 Initial command:
 /home/madghost/g09/l1.exe "/scr/natalya/job62/Gau-3913269.inp" -scrdir="/scr/natalya/job62/"
 Entering Link 1 = /home/madghost/g09/l1.exe PID=   3913296.
  
 Copyright (c) 1988,1990,1992,1993,1995,1998,2003,2009,2013,
            Gaussian, Inc.  All Rights Reserved.
  
 This is part of the Gaussian(R) 09 program.  It is based on
 the Gaussian(R) 03 system (copyright 2003, Gaussian, Inc.),
 the Gaussian(R) 98 system (copyright 1998, Gaussian, Inc.),
 the Gaussian(R) 94 system (copyright 1995, Gaussian, Inc.),
 the Gaussian 92(TM) system (copyright 1992, Gaussian, Inc.),
 the Gaussian 90(TM) system (copyright 1990, Gaussian, Inc.),
 the Gaussian 88(TM) system (copyright 1988, Gaussian, Inc.),
 the Gaussian 86(TM) system (copyright 1986, Carnegie Mellon
 University), and the Gaussian 82(TM) system (copyright 1983,
 Carnegie Mellon University). Gaussian is a federally registered
 trademark of Gaussian, Inc.
  
 This software contains proprietary and confidential information,
 including trade secrets, belonging to Gaussian, Inc.
  
 This software is provided under written license and may be
 used, copied, transmitted, or stored only in accord with that
 written license.
  
 The following legend is applicable only to US Government
 contracts under FAR:
  
                    RESTRICTED RIGHTS LEGEND
  
 Use, reproduction and disclosure by the US Government is
 subject to restrictions as set forth in subparagraphs (a)
 and (c) of the Commercial Computer Software - Restricted
 Rights clause in FAR 52.227-19.
  
 Gaussian, Inc.
 340 Quinnipiac St., Bldg. 40, Wallingford CT 06492
  
  
 ---------------------------------------------------------------
 Warning -- This program may not be used in any manner that
 competes with the business of Gaussian, Inc. or will provide
 assistance to any competitor of Gaussian, Inc.  The licensee
 of this program is prohibited from giving any competitor of
 Gaussian, Inc. access to this program.  By using this program,
 the user acknowledges that Gaussian, Inc. is engaged in the
 business of creating and licensing software in the field of
 computational chemistry and represents and warrants to the
 licensee that it is not a competitor of Gaussian, Inc. and that
 it will not use this program in any manner prohibited above.
 ---------------------------------------------------------------
  

 Cite this work as:
 Gaussian 09, Revision D.01,
 M. J. Frisch, G. W. Trucks, H. B. Schlegel, G. E. Scuseria, 
 M. A. Robb, J. R. Cheeseman, G. Scalmani, V. Barone, B. Mennucci, 
 G. A. Petersson, H. Nakatsuji, M. Caricato, X. Li, H. P. Hratchian, 
 A. F. Izmaylov, J. Bloino, G. Zheng, J. L. Sonnenberg, M. Hada, 
 M. Ehara, K. Toyota, R. Fukuda, J. Hasegawa, M. Ishida, T. Nakajima, 
 Y. Honda, O. Kitao, H. Nakai, T. Vreven, J. A. Montgomery, Jr., 
 J. E. Peralta, F. Ogliaro, M. Bearpark, J. J. Heyd, E. Brothers, 
 K. N. Kudin, V. N. Staroverov, T. Keith, R. Kobayashi, J. Normand, 
 K. Raghavachari, A. Rendell, J. C. Burant, S. S. Iyengar, J. Tomasi, 
 M. Cossi, N. Rega, J. M. Millam, M. Klene, J. E. Knox, J. B. Cross, 
 V. Bakken, C. Adamo, J. Jaramillo, R. Gomperts, R. E. Stratmann, 
 O. Yazyev, A. J. Austin, R. Cammi, C. Pomelli, J. W. Ochterski, 
 R. L. Martin, K. Morokuma, V. G. Zakrzewski, G. A. Voth, 
 P. Salvador, J. J. Dannenberg, S. Dapprich, A. D. Daniels, 
 O. Farkas, J. B. Foresman, J. V. Ortiz, J. Cioslowski, 
 and D. J. Fox, Gaussian, Inc., Wallingford CT, 2013.
 
 ******************************************
 Gaussian 09:  EM64L-G09RevD.01 24-Apr-2013
                17-May-2024 
 ******************************************
 %chk=job62
 %nproc=24
 Will use up to   24 processors via shared memory.
 %mem=48000mb
 --------------------------
 #P PBE1PBE/GEN pop=nboread
 --------------------------
 1/38=1/1;
 2/12=2,17=6,18=5,40=1/2;
 3/5=7,11=2,16=1,25=1,30=1,74=-13/1,2,3;
 4//1;
 5/5=2,38=5/2;
 6/7=2,8=2,9=2,10=2,28=1,40=2/1,7;
 99/5=1,9=1/99;
 Leave Link    1 at Fri May 17 10:23:39 2024, MaxMem=  6291456000 cpu:         0.8
 (Enter /home/madghost/g09/l101.exe)
 ---
 c2h
 ---
 Symbolic Z-matrix:
 Charge =  0 Multiplicity = 1
 6                     1.09825  -1.51565   0.05149 
 1                     1.00897  -2.59605  -0.06893 
 1                     1.37448  -1.31839   1.09189 
 6                    -0.22328  -0.85304  -0.28037 
 1                    -0.12263   0.2384   -0.26213 
 1                    -0.54244  -1.14923  -1.2867 
 8                     2.1076   -1.10849  -0.8416 
 8                    -1.14392  -1.28787   0.69024 
 6                     2.71896   0.08839  -0.64759 
 6                     3.68091   0.43048  -1.59529 
 6                     2.45545   0.95274   0.40985 
 6                     4.37163   1.62169  -1.48337 
 6                     3.15948   2.14661   0.50894 
 6                     4.11655   2.49059  -0.42914 
 1                     3.87092  -0.25809  -2.4098 
 1                     1.71012   0.71594   1.15736 
 1                     5.1185    1.8743   -2.2274 
 1                     2.94609   2.81354   1.33656 
 1                     4.65816   3.42453  -0.34353 
 6                    -2.41934  -0.83581   0.60915 
 6                    -2.87588   0.03581  -0.37281 
 6                    -3.29357  -1.29664   1.59088 
 6                    -4.2059    0.43925  -0.36183 
 6                    -4.61244  -0.88624   1.58741 
 6                    -5.07938  -0.01433   0.61031 
 1                    -2.21197   0.40443  -1.14317 
 1                    -2.91501  -1.97576   2.34534 
 1                    -4.55481   1.11942  -1.13053 
 1                    -5.28443  -1.25085   2.35597 
 1                    -6.11409   0.30569   0.61021 
 
 NAtoms=     30 NQM=       30 NQMF=       0 NMMI=      0 NMMIF=      0
                NMic=       0 NMicF=      0.
                    Isotopes and Nuclear Properties:
 (Nuclear quadrupole moments (NQMom) in fm**2, nuclear magnetic moments (NMagM)
  in nuclear magnetons)

  Atom         1           2           3           4           5           6           7           8           9          10
 IAtWgt=          12           1           1          12           1           1          16          16          12          12
 AtmWgt=  12.0000000   1.0078250   1.0078250  12.0000000   1.0078250   1.0078250  15.9949146  15.9949146  12.0000000  12.0000000
 NucSpn=           0           1           1           0           1           1           0           0           0           0
 AtZEff=   0.0000000   0.0000000   0.0000000   0.0000000   0.0000000   0.0000000   0.0000000   0.0000000   0.0000000   0.0000000
 NQMom=    0.0000000   0.0000000   0.0000000   0.0000000   0.0000000   0.0000000   0.0000000   0.0000000   0.0000000   0.0000000
 NMagM=    0.0000000   2.7928460   2.7928460   0.0000000   2.7928460   2.7928460   0.0000000   0.0000000   0.0000000   0.0000000
 AtZNuc=   6.0000000   1.0000000   1.0000000   6.0000000   1.0000000   1.0000000   8.0000000   8.0000000   6.0000000   6.0000000

  Atom        11          12          13          14          15          16          17          18          19          20
 IAtWgt=          12          12          12          12           1           1           1           1           1          12
 AtmWgt=  12.0000000  12.0000000  12.0000000  12.0000000   1.0078250   1.0078250   1.0078250   1.0078250   1.0078250  12.0000000
 NucSpn=           0           0           0           0           1           1           1           1           1           0
 AtZEff=   0.0000000   0.0000000   0.0000000   0.0000000   0.0000000   0.0000000   0.0000000   0.0000000   0.0000000   0.0000000
 NQMom=    0.0000000   0.0000000   0.0000000   0.0000000   0.0000000   0.0000000   0.0000000   0.0000000   0.0000000   0.0000000
 NMagM=    0.0000000   0.0000000   0.0000000   0.0000000   2.7928460   2.7928460   2.7928460   2.7928460   2.7928460   0.0000000
 AtZNuc=   6.0000000   6.0000000   6.0000000   6.0000000   1.0000000   1.0000000   1.0000000   1.0000000   1.0000000   6.0000000

  Atom        21          22          23          24          25          26          27          28          29          30
 IAtWgt=          12          12          12          12          12           1           1           1           1           1
 AtmWgt=  12.0000000  12.0000000  12.0000000  12.0000000  12.0000000   1.0078250   1.0078250   1.0078250   1.0078250   1.0078250
 NucSpn=           0           0           0           0           0           1           1           1           1           1
 AtZEff=   0.0000000   0.0000000   0.0000000   0.0000000   0.0000000   0.0000000   0.0000000   0.0000000   0.0000000   0.0000000
 NQMom=    0.0000000   0.0000000   0.0000000   0.0000000   0.0000000   0.0000000   0.0000000   0.0000000   0.0000000   0.0000000
 NMagM=    0.0000000   0.0000000   0.0000000   0.0000000   0.0000000   2.7928460   2.7928460   2.7928460   2.7928460   2.7928460
 AtZNuc=   6.0000000   6.0000000   6.0000000   6.0000000   6.0000000   1.0000000   1.0000000   1.0000000   1.0000000   1.0000000
 Leave Link  101 at Fri May 17 10:23:39 2024, MaxMem=  6291456000 cpu:         2.1
 (Enter /home/madghost/g09/l202.exe)
                          Input orientation:                          
 ---------------------------------------------------------------------
 Center     Atomic      Atomic             Coordinates (Angstroms)
 Number     Number       Type             X           Y           Z
 ---------------------------------------------------------------------
      1          6           0        1.098254   -1.515651    0.051492
      2          1           0        1.008967   -2.596050   -0.068931
      3          1           0        1.374482   -1.318390    1.091891
      4          6           0       -0.223281   -0.853042   -0.280373
      5          1           0       -0.122626    0.238398   -0.262125
      6          1           0       -0.542443   -1.149231   -1.286696
      7          8           0        2.107601   -1.108494   -0.841600
      8          8           0       -1.143916   -1.287868    0.690240
      9          6           0        2.718961    0.088392   -0.647585
     10          6           0        3.680906    0.430481   -1.595293
     11          6           0        2.455454    0.952738    0.409848
     12          6           0        4.371626    1.621685   -1.483367
     13          6           0        3.159477    2.146608    0.508936
     14          6           0        4.116551    2.490585   -0.429140
     15          1           0        3.870916   -0.258085   -2.409801
     16          1           0        1.710116    0.715943    1.157365
     17          1           0        5.118500    1.874300   -2.227396
     18          1           0        2.946089    2.813542    1.336563
     19          1           0        4.658164    3.424532   -0.343528
     20          6           0       -2.419339   -0.835806    0.609150
     21          6           0       -2.875883    0.035812   -0.372814
     22          6           0       -3.293566   -1.296640    1.590879
     23          6           0       -4.205896    0.439248   -0.361831
     24          6           0       -4.612439   -0.886243    1.587413
     25          6           0       -5.079380   -0.014331    0.610305
     26          1           0       -2.211971    0.404426   -1.143174
     27          1           0       -2.915008   -1.975755    2.345344
     28          1           0       -4.554811    1.119424   -1.130534
     29          1           0       -5.284431   -1.250852    2.355972
     30          1           0       -6.114092    0.305691    0.610205
 ---------------------------------------------------------------------
                    Distance matrix (angstroms):
                    1          2          3          4          5
     1  C    0.000000
     2  H    1.090750   0.000000
     3  H    1.094369   1.764518   0.000000
     4  C    1.515137   2.145045   2.156966   0.000000
     5  H    2.159998   3.058091   2.549173   1.096223   0.000000
     6  H    2.148697   2.446040   3.059558   1.096485   1.775248
     7  O    1.407896   2.004205   2.078439   2.411067   2.669049
     8  O    2.342480   2.631081   2.550409   1.406674   2.068700
     9  C    2.385027   3.234988   2.610064   3.110937   2.871532
    10  C    3.628970   4.316124   3.949570   4.314988   4.034983
    11  C    2.839605   3.862053   2.606090   3.303463   2.758319
    12  C    4.786819   5.576504   4.925329   5.355804   4.858314
    13  C    4.227297   5.239411   3.941098   4.589549   3.874016
    14  C    5.038953   5.971657   4.933636   5.480521   4.803214
    15  H    3.914983   4.374529   4.429252   4.653051   4.561511
    16  H    2.564633   3.600654   2.062874   2.875209   2.366843
    17  H    5.731272   6.444475   5.935369   6.305864   5.831626
    18  H    4.879325   5.915365   4.427491   5.109132   4.313257
    19  H    6.102000   7.045527   5.944603   6.490773   5.745784
    20  C    3.625828   3.912996   3.854738   2.369434   2.681031
    21  C    4.287288   4.702244   4.695192   2.799090   2.762918
    22  C    4.658944   4.791161   4.694692   3.622846   3.980556
    23  C    5.668022   6.040995   6.028534   4.187824   4.089422
    24  C    5.947035   6.104680   6.022916   4.770161   4.984378
    25  C    6.381959   6.647902   6.601881   5.007838   5.039287
    26  H    4.008929   4.531147   4.563579   2.506100   2.273582
    27  H    4.645398   4.648771   4.516968   3.924318   4.415741
    28  H    6.348067   6.774022   6.785177   4.834827   4.601587
    29  H    6.791128   6.877250   6.778170   5.720473   5.976331
    30  H    7.459717   7.721353   7.677786   6.069386   6.055011
                    6          7          8          9         10
     6  H    0.000000
     7  O    2.687472   0.000000
     8  O    2.071054   3.598760   0.000000
     9  C    3.546397   1.357917   4.313431   0.000000
    10  C    4.519668   2.326325   5.608502   1.393023   0.000000
    11  C    4.035334   2.436350   4.249047   1.390933   2.407296
    12  C    5.644885   3.604379   6.603883   2.404334   1.381517
    13  C    5.271723   3.677782   5.508874   2.401635   2.764916
    14  C    5.974101   4.142387   6.572840   2.787742   2.407016
    15  H    4.640393   2.508332   5.984918   2.133648   1.083351
    16  H    3.811342   2.735402   3.518375   2.160887   3.397444
    17  H    6.486365   4.459036   7.598010   3.382759   2.133271
    18  H    5.895330   4.563970   5.828159   3.378590   3.848989
    19  H    6.989649   5.225110   7.545828   3.870761   3.389143
    20  C    2.686114   4.761535   1.355596   5.369884   6.608785
    21  C    2.772084   5.134619   2.425267   5.601834   6.681444
    22  C    3.983823   5.926631   2.330713   6.563499   7.859892
    23  C    4.098723   6.518123   3.669537   6.939625   7.982678
    24  C    4.989442   7.149017   3.605118   7.726225   8.980142
    25  C    5.046822   7.413361   4.137168   7.899808   9.044619
    26  H    2.285120   4.586783   2.714039   4.965841   5.910253
    27  H    4.416324   6.011269   2.519787   6.705217   8.051377
    28  H    4.611971   7.030991   4.554611   7.362338   8.277541
    29  H    5.980452   8.055239   4.463171   8.652700   9.940656
    30  H    6.062863   8.467815   5.220008   8.924801  10.041005
                   11         12         13         14         15
    11  C    0.000000
    12  C    2.775512   0.000000
    13  C    1.389530   2.390423   0.000000
    14  C    2.414149   1.389764   1.383581   0.000000
    15  H    3.379356   2.154652   3.848080   3.396843   0.000000
    16  H    1.081842   3.857132   2.137267   3.384861   4.282810
    17  H    3.859553   1.084073   3.376305   2.148821   2.477257
    18  H    2.135911   3.377082   1.084113   2.142893   4.932083
    19  H    3.395478   2.152114   2.146124   1.083019   4.295452
    20  C    5.196366   7.518982   6.326770   7.406806   7.001081
    21  C    5.465937   7.501647   6.454341   7.411020   7.053722
    22  C    6.285361   8.759154   7.393803   8.563491   8.271266
    23  C    6.725529   8.730973   7.610653   8.571793   8.361540
    24  C    7.397542   9.820021   8.412133   9.574169   9.398916
    25  C    7.599285   9.817409   8.518139   9.587502   9.449246
    26  H    4.949483   6.703820   5.883631   6.701649   6.248582
    27  H    6.415924   8.983075   7.567406   8.780021   8.462302
    28  H    7.179441   8.947516   7.953189   8.807074   8.632898
    29  H    8.279434  10.781068   9.287296  10.494459  10.369116
    30  H    8.596274  10.773354   9.455068  10.512852  10.446945
                   16         17         18         19         20
    16  H    0.000000
    17  H    4.941202   0.000000
    18  H    2.441242   4.278241   0.000000
    19  H    4.275526   2.482758   2.475321   0.000000
    20  C    4.445319   8.497628   6.529524   8.315595   0.000000
    21  C    4.882152   8.410093   6.673313   8.261123   1.390109
    22  C    5.410662   9.767136   7.476066   9.447825   1.392994
    23  C    6.114222   9.616864   7.724811   9.353278   2.400073
    24  C    6.536562  10.810390   8.419185  10.404585   2.401922
    25  C    6.850535  10.752499   8.540051  10.370889   2.783997
    26  H    4.557663   7.554593   6.209551   7.547134   2.156807
    27  H    5.481633  10.013497   7.635932   9.682255   2.135308
    28  H    6.681810   9.764522   8.075896   9.529523   3.377820
    29  H    7.364009  11.789606   9.235797  11.313784   3.381184
    30  H    7.854039  11.691178   9.428881  11.255144   3.867068
                   21         22         23         24         25
    21  C    0.000000
    22  C    2.409560   0.000000
    23  C    1.389898   2.767441   0.000000
    24  C    2.776383   1.381254   2.392019   0.000000
    25  C    2.413387   2.407275   1.383386   1.390325   0.000000
    26  H    1.081716   3.396840   2.141832   3.858002   3.387046
    27  H    3.381762   1.083384   3.850640   2.154708   3.397359
    28  H    2.137090   3.851518   1.084106   3.378351   2.142684
    29  H    3.860425   2.133309   3.377296   1.084065   2.149042
    30  H    3.394872   3.388887   2.145671   2.151884   1.083071
                   26         27         28         29         30
    26  H    0.000000
    27  H    4.281271   0.000000
    28  H    2.449547   4.934654   0.000000
    29  H    4.942062   2.477854   4.278584   0.000000
    30  H    4.279093   4.295328   2.474609   2.481706   0.000000
 Stoichiometry    C14H14O2
 Framework group  C1[X(C14H14O2)]
 Deg. of freedom    84
 Full point group                 C1      NOp   1
 Largest Abelian subgroup         C1      NOp   1
 Largest concise Abelian subgroup C1      NOp   1
                         Standard orientation:                         
 ---------------------------------------------------------------------
 Center     Atomic      Atomic             Coordinates (Angstroms)
 Number     Number       Type             X           Y           Z
 ---------------------------------------------------------------------
      1          6           0       -0.718690    1.720980    0.166504
      2          1           0       -0.423084    2.753673   -0.022965
      3          1           0       -0.835469    1.601256    1.248018
      4          6           0        0.346029    0.779594   -0.358667
      5          1           0        0.018430   -0.262517   -0.267068
      6          1           0        0.531482    0.986724   -1.419319
      7          8           0       -1.938025    1.536310   -0.512680
      8          8           0        1.500401    1.011686    0.410938
      9          6           0       -2.746010    0.505944   -0.152896
     10          6           0       -3.915902    0.373668   -0.897456
     11          6           0       -2.485131   -0.383213    0.884426
     12          6           0       -4.813837   -0.634587   -0.604672
     13          6           0       -3.398753   -1.391281    1.167071
     14          6           0       -4.562612   -1.526363    0.431217
     15          1           0       -4.099521    1.077926   -1.699924
     16          1           0       -1.582321   -0.308140    1.475763
     17          1           0       -5.720879   -0.724712   -1.191499
     18          1           0       -3.185658   -2.079446    1.977207
     19          1           0       -5.267079   -2.316882    0.658676
     20          6           0        2.612033    0.288654    0.129620
     21          6           0        2.682965   -0.673223   -0.871462
     22          6           0        3.729505    0.556470    0.916998
     23          6           0        3.874275   -1.359823   -1.074382
     24          6           0        4.905986   -0.134626    0.702194
     25          6           0        4.987719   -1.099027   -0.295931
     26          1           0        1.825778   -0.895074   -1.492849
     27          1           0        3.650376    1.310826    1.690565
     28          1           0        3.922131   -2.108839   -1.856667
     29          1           0        5.769734    0.081517    1.320593
     30          1           0        5.911618   -1.639288   -0.461979
 ---------------------------------------------------------------------
 Rotational constants (GHZ):      1.4214095      0.1996939      0.1904613
 Leave Link  202 at Fri May 17 10:23:40 2024, MaxMem=  6291456000 cpu:         0.1
 (Enter /home/madghost/g09/l301.exe)
 General basis read from cards:  (5D, 7F)
 Centers:       2      3      5      6     15     16     17     18     19     26
 Centers:      27     28     29     30
 S 3 1.00
     Exponent=  3.4061341000D+01 Coefficients=  6.0251978000D-03
     Exponent=  5.1235746000D+00 Coefficients=  4.5021094000D-02
     Exponent=  1.1646626000D+00 Coefficients=  2.0189726000D-01
 S 1 1.00
     Exponent=  3.2723041000D-01 Coefficients=  1.0000000000D+00
 S 1 1.00
     Exponent=  1.0307241000D-01 Coefficients=  1.0000000000D+00
 P 1 1.00
     Exponent=  1.4070000000D+00 Coefficients=  1.0000000000D+00
 P 1 1.00
     Exponent=  3.8800000000D-01 Coefficients=  1.0000000000D+00
 D 1 1.00
     Exponent=  1.0570000000D+00 Coefficients=  1.0000000000D+00
 ****
 Centers:       1      4      9     10     11     12     13     14     20     21
 Centers:      22     23     24     25
 S 6 1.00
     Exponent=  1.3575349682D+04 Coefficients=  2.2245814352D-04
     Exponent=  2.0352333680D+03 Coefficients=  1.7232738252D-03
     Exponent=  4.6322562359D+02 Coefficients=  8.9255715314D-03
     Exponent=  1.3120019598D+02 Coefficients=  3.5727984502D-02
     Exponent=  4.2853015891D+01 Coefficients=  1.1076259931D-01
     Exponent=  1.5584185766D+01 Coefficients=  2.4295627626D-01
 S 2 1.00
     Exponent=  6.2067138508D+00 Coefficients=  4.1440263448D-01
     Exponent=  2.5764896527D+00 Coefficients=  2.3744968655D-01
 S 1 1.00
     Exponent=  5.7696339419D-01 Coefficients=  1.0000000000D+00
 S 1 1.00
     Exponent=  2.2972831358D-01 Coefficients=  1.0000000000D+00
 S 1 1.00
     Exponent=  9.5164440028D-02 Coefficients=  1.0000000000D+00
 P 4 1.00
     Exponent=  3.4697232244D+01 Coefficients=  5.3333657805D-03
     Exponent=  7.9582622826D+00 Coefficients=  3.5864109092D-02
     Exponent=  2.3780826883D+00 Coefficients=  1.4215873329D-01
     Exponent=  8.1433208183D-01 Coefficients=  3.4270471845D-01
 P 1 1.00
     Exponent=  2.8887547253D-01 Coefficients=  4.6445822433D-01
 P 1 1.00
     Exponent=  1.0056823671D-01 Coefficients=  2.4955789874D-01
 D 1 1.00
     Exponent=  1.0970000000D+00 Coefficients=  1.0000000000D+00
 D 1 1.00
     Exponent=  3.1800000000D-01 Coefficients=  1.0000000000D+00
 F 1 1.00
     Exponent=  7.6100000000D-01 Coefficients=  1.0000000000D+00
 ****
 Centers:       7      8
 S 6 1.00
     Exponent=  2.7032382631D+04 Coefficients=  2.1726302465D-04
     Exponent=  4.0523871392D+03 Coefficients=  1.6838662199D-03
     Exponent=  9.2232722710D+02 Coefficients=  8.7395616265D-03
     Exponent=  2.6124070989D+02 Coefficients=  3.5239968808D-02
     Exponent=  8.5354641351D+01 Coefficients=  1.1153519115D-01
     Exponent=  3.1035035245D+01 Coefficients=  2.5588953961D-01
 S 2 1.00
     Exponent=  1.2260860728D+01 Coefficients=  3.9768730901D-01
     Exponent=  4.9987076005D+00 Coefficients=  2.4627849430D-01
 S 1 1.00
     Exponent=  1.1703108158D+00 Coefficients=  1.0000000000D+00
 S 1 1.00
     Exponent=  4.6474740994D-01 Coefficients=  1.0000000000D+00
 S 1 1.00
     Exponent=  1.8504536357D-01 Coefficients=  1.0000000000D+00
 P 4 1.00
     Exponent=  6.3274954801D+01 Coefficients=  6.0685103418D-03
     Exponent=  1.4627049379D+01 Coefficients=  4.1912575824D-02
     Exponent=  4.4501223456D+00 Coefficients=  1.6153841088D-01
     Exponent=  1.5275799647D+00 Coefficients=  3.5706951311D-01
 P 1 1.00
     Exponent=  5.2935117943D-01 Coefficients=  4.4794207502D-01
 P 1 1.00
     Exponent=  1.7478421270D-01 Coefficients=  2.4446069663D-01
 D 1 1.00
     Exponent=  2.3140000000D+00 Coefficients=  1.0000000000D+00
 D 1 1.00
     Exponent=  6.4500000000D-01 Coefficients=  1.0000000000D+00
 F 1 1.00
     Exponent=  1.4280000000D+00 Coefficients=  1.0000000000D+00
 ****
 Ernie: Thresh=  0.10000D-02 Tol=  0.10000D-05 Strict=F.
 There are   786 symmetry adapted cartesian basis functions of A   symmetry.
 There are   692 symmetry adapted basis functions of A   symmetry.
   692 basis functions,  1054 primitive gaussians,   786 cartesian basis functions
    57 alpha electrons       57 beta electrons
       nuclear repulsion energy       985.7031656805 Hartrees.
 IExCor= 1009 DFT=T Ex+Corr=PBE1PBE ExCW=0 ScaHFX=  0.250000
 ScaDFX=  0.750000  0.750000  1.000000  1.000000 ScalE2=  1.000000  1.000000
 IRadAn=      0 IRanWt=     -1 IRanGd=            0 ICorTp=0 IEmpDi=  4
 NAtoms=   30 NActive=   30 NUniq=   30 SFac= 1.00D+00 NAtFMM=   60 NAOKFM=F Big=F
 Integral buffers will be    131072 words long.
 Raffenetti 2 integral format.
 Two-electron integral symmetry is turned on.
 Leave Link  301 at Fri May 17 10:23:40 2024, MaxMem=  6291456000 cpu:         2.0
 (Enter /home/madghost/g09/l302.exe)
 NPDir=0 NMtPBC=     1 NCelOv=     1 NCel=       1 NClECP=     1 NCelD=      1
         NCelK=      1 NCelE2=     1 NClLst=     1 CellRange=     0.0.
 One-electron integrals computed using PRISM.
 NBasis=   692 RedAO= T EigKep=  9.01D-06  NBF=   692
 NBsUse=   692 1.00D-06 EigRej= -1.00D+00 NBFU=   692
 Precomputing XC quadrature grid using
 IXCGrd= 4 IRadAn=           0 IRanWt=          -1 IRanGd=           0 AccXCQ= 0.00D+00.
 Generated NRdTot=       0 NPtTot=           0 NUsed=           0 NTot=          32
 NSgBfM=   766   767   770   770   770 MxSgAt=    30 MxSgA2=    30.
 Leave Link  302 at Fri May 17 10:23:42 2024, MaxMem=  6291456000 cpu:        41.7
 (Enter /home/madghost/g09/l303.exe)
 DipDrv:  MaxL=1.
 Leave Link  303 at Fri May 17 10:23:42 2024, MaxMem=  6291456000 cpu:         3.2
 (Enter /home/madghost/g09/l401.exe)
 ExpMin= 9.52D-02 ExpMax= 2.70D+04 ExpMxC= 9.22D+02 IAcc=2 IRadAn=         4 AccDes= 0.00D+00
 Harris functional with IExCor= 1009 and IRadAn=       4 diagonalized for initial guess.
 HarFok:  IExCor= 1009 AccDes= 0.00D+00 IRadAn=         4 IDoV= 1 UseB2=F ITyADJ=14
 ICtDFT=  3500011 ScaDFX=  1.000000  1.000000  1.000000  1.000000
 FoFCou: FMM=F IPFlag=           0 FMFlag=      100000 FMFlg1=           0
         NFxFlg=           0 DoJE=T BraDBF=F KetDBF=T FulRan=T
         wScrn=  0.000000 ICntrl=     500 IOpCl=  0 I1Cent=   200000004 NGrid=           0
         NMat0=    1 NMatS0=      1 NMatT0=    0 NMatD0=    1 NMtDS0=    0 NMtDT0=    0
 Petite list used in FoFCou.
 Harris En= -692.030149535029    
 JPrj=0 DoOrth=F DoCkMO=F.
 Leave Link  401 at Fri May 17 10:23:45 2024, MaxMem=  6291456000 cpu:        71.6
 (Enter /home/madghost/g09/l502.exe)
 Closed shell SCF:
 Using DIIS extrapolation, IDIIS=  1040.
 Integral symmetry usage will be decided dynamically.
 IVT=     1896530 IEndB=     1896530 NGot=  6291456000 MDV=  6290194693
 LenX=  6290194693 LenY=  6289576111
 Requested convergence on RMS density matrix=1.00D-08 within 128 cycles.
 Requested convergence on MAX density matrix=1.00D-06.
 Requested convergence on             energy=1.00D-06.
 No special actions if energy rises.
 Fock matrices will be formed incrementally for  20 cycles.
 Integral accuracy reduced to 1.0D-05 until final iterations.

 Cycle   1  Pass 0  IDiag  1:
 FoFJK:  IHMeth= 1 ICntrl=       0 DoSepK=F KAlg= 0 I1Cent=   0 FoldK=F
 IRaf= 750000000 NMat=   1 IRICut=       1 DoRegI=T DoRafI=F ISym2E= 0.
 FoFCou: FMM=F IPFlag=           0 FMFlag=      100000 FMFlg1=           0
         NFxFlg=           0 DoJE=F BraDBF=F KetDBF=F FulRan=T
         wScrn=  0.000000 ICntrl=       0 IOpCl=  0 I1Cent=           0 NGrid=           0
         NMat0=    1 NMatS0=      1 NMatT0=    0 NMatD0=    1 NMtDS0=    0 NMtDT0=    0
 Symmetry not used in FoFCou.
 E= -691.425805169727    
 DIIS: error= 1.97D-02 at cycle   1 NSaved=   1.
 NSaved= 1 IEnMin= 1 EnMin= -691.425805169727     IErMin= 1 ErrMin= 1.97D-02
 ErrMax= 1.97D-02  0.00D+00 EMaxC= 1.00D-01 BMatC= 3.92D-01 BMatP= 3.92D-01
 IDIUse=3 WtCom= 8.03D-01 WtEn= 1.97D-01
 Coeff-Com:  0.100D+01
 Coeff-En:   0.100D+01
 Coeff:      0.100D+01
 Gap=     0.262 Goal=   None    Shift=    0.000
 GapD=    0.262 DampG=1.000 DampE=0.500 DampFc=0.5000 IDamp=-1.
 Damping current iteration by 5.00D-01
 RMSDP=2.77D-03 MaxDP=2.12D-01              OVMax= 2.03D-01

 Cycle   2  Pass 0  IDiag  1:
 RMSU=  1.39D-03    CP:  1.00D+00
 E= -691.593959825577     Delta-E=       -0.168154655844 Rises=F Damp=T
 DIIS: error= 5.72D-03 at cycle   2 NSaved=   2.
 NSaved= 2 IEnMin= 2 EnMin= -691.593959825577     IErMin= 2 ErrMin= 5.72D-03
 ErrMax= 5.72D-03  0.00D+00 EMaxC= 1.00D-01 BMatC= 2.88D-02 BMatP= 3.92D-01
 IDIUse=3 WtCom= 9.43D-01 WtEn= 5.72D-02
 Coeff-Com: -0.886D-02 0.101D+01
 Coeff-En:   0.489D-01 0.951D+00
 Coeff:     -0.556D-02 0.101D+01
 Gap=     0.298 Goal=   None    Shift=    0.000
 RMSDP=7.57D-04 MaxDP=4.43D-02 DE=-1.68D-01 OVMax= 1.45D-01

 Cycle   3  Pass 0  IDiag  1:
 RMSU=  7.07D-04    CP:  1.00D+00  1.20D+00
 E= -691.774548795432     Delta-E=       -0.180588969859 Rises=F Damp=F
 DIIS: error= 6.65D-03 at cycle   3 NSaved=   3.
 NSaved= 3 IEnMin= 3 EnMin= -691.774548795432     IErMin= 2 ErrMin= 5.72D-03
 ErrMax= 6.65D-03  0.00D+00 EMaxC= 1.00D-01 BMatC= 1.98D-02 BMatP= 2.88D-02
 IDIUse=3 WtCom= 9.34D-01 WtEn= 6.65D-02
 Coeff-Com: -0.693D-01 0.475D+00 0.595D+00
 Coeff-En:   0.000D+00 0.000D+00 0.100D+01
 Coeff:     -0.647D-01 0.443D+00 0.622D+00
 Gap=     0.235 Goal=   None    Shift=    0.000
 RMSDP=5.71D-04 MaxDP=5.09D-02 DE=-1.81D-01 OVMax= 6.82D-02

 Cycle   4  Pass 0  IDiag  1:
 RMSU=  3.52D-04    CP:  9.90D-01  9.26D-01  6.64D-01
 E= -691.787941207601     Delta-E=       -0.013392412169 Rises=F Damp=F
 DIIS: error= 4.68D-03 at cycle   4 NSaved=   4.
 NSaved= 4 IEnMin= 4 EnMin= -691.787941207601     IErMin= 4 ErrMin= 4.68D-03
 ErrMax= 4.68D-03  0.00D+00 EMaxC= 1.00D-01 BMatC= 6.80D-03 BMatP= 1.98D-02
 IDIUse=3 WtCom= 9.53D-01 WtEn= 4.68D-02
 Coeff-Com: -0.413D-01 0.147D+00 0.398D+00 0.496D+00
 Coeff-En:   0.000D+00 0.000D+00 0.279D+00 0.721D+00
 Coeff:     -0.393D-01 0.140D+00 0.392D+00 0.507D+00
 Gap=     0.228 Goal=   None    Shift=    0.000
 RMSDP=2.73D-04 MaxDP=2.51D-02 DE=-1.34D-02 OVMax= 2.78D-02

 Cycle   5  Pass 0  IDiag  1:
 RMSU=  7.26D-05    CP:  9.94D-01  1.07D+00  8.15D-01  6.04D-01
 E= -691.794847776434     Delta-E=       -0.006906568833 Rises=F Damp=F
 DIIS: error= 6.41D-04 at cycle   5 NSaved=   5.
 NSaved= 5 IEnMin= 5 EnMin= -691.794847776434     IErMin= 5 ErrMin= 6.41D-04
 ErrMax= 6.41D-04  0.00D+00 EMaxC= 1.00D-01 BMatC= 1.81D-04 BMatP= 6.80D-03
 IDIUse=3 WtCom= 9.94D-01 WtEn= 6.41D-03
 Coeff-Com: -0.119D-01 0.281D-01 0.118D+00 0.220D+00 0.646D+00
 Coeff-En:   0.000D+00 0.000D+00 0.000D+00 0.000D+00 0.100D+01
 Coeff:     -0.118D-01 0.279D-01 0.117D+00 0.218D+00 0.648D+00
 Gap=     0.227 Goal=   None    Shift=    0.000
 RMSDP=2.63D-05 MaxDP=8.04D-04 DE=-6.91D-03 OVMax= 3.90D-03

 Cycle   6  Pass 0  IDiag  1:
 RMSU=  2.31D-05    CP:  9.94D-01  1.06D+00  8.18D-01  6.25D-01  9.31D-01
 E= -691.795016835038     Delta-E=       -0.000169058604 Rises=F Damp=F
 DIIS: error= 1.21D-04 at cycle   6 NSaved=   6.
 NSaved= 6 IEnMin= 6 EnMin= -691.795016835038     IErMin= 6 ErrMin= 1.21D-04
 ErrMax= 1.21D-04  0.00D+00 EMaxC= 1.00D-01 BMatC= 1.76D-05 BMatP= 1.81D-04
 IDIUse=3 WtCom= 9.99D-01 WtEn= 1.21D-03
 Coeff-Com: -0.430D-02 0.789D-02 0.442D-01 0.935D-01 0.346D+00 0.512D+00
 Coeff-En:   0.000D+00 0.000D+00 0.000D+00 0.000D+00 0.000D+00 0.100D+01
 Coeff:     -0.430D-02 0.788D-02 0.442D-01 0.934D-01 0.346D+00 0.513D+00
 Gap=     0.228 Goal=   None    Shift=    0.000
 RMSDP=9.47D-06 MaxDP=5.97D-04 DE=-1.69D-04 OVMax= 8.08D-04

 Initial convergence to 1.0D-05 achieved.  Increase integral accuracy.
 Cycle   7  Pass 1  IDiag  1:
 E= -691.794656303442     Delta-E=        0.000360531596 Rises=F Damp=F
 DIIS: error= 2.40D-04 at cycle   1 NSaved=   1.
 NSaved= 1 IEnMin= 1 EnMin= -691.794656303442     IErMin= 1 ErrMin= 2.40D-04
 ErrMax= 2.40D-04  0.00D+00 EMaxC= 1.00D-01 BMatC= 3.64D-05 BMatP= 3.64D-05
 IDIUse=3 WtCom= 9.98D-01 WtEn= 2.40D-03
 Coeff-Com:  0.100D+01
 Coeff-En:   0.100D+01
 Coeff:      0.100D+01
 Gap=     0.228 Goal=   None    Shift=    0.000
 RMSDP=9.47D-06 MaxDP=5.97D-04 DE= 3.61D-04 OVMax= 1.05D-03

 Cycle   8  Pass 1  IDiag  1:
 RMSU=  8.02D-04    CP:  9.72D-01
 E= -691.794682599636     Delta-E=       -0.000026296193 Rises=F Damp=F
 DIIS: error= 3.71D-05 at cycle   2 NSaved=   2.
 NSaved= 2 IEnMin= 2 EnMin= -691.794682599636     IErMin= 2 ErrMin= 3.71D-05
 ErrMax= 3.71D-05  0.00D+00 EMaxC= 1.00D-01 BMatC= 1.70D-06 BMatP= 3.64D-05
 IDIUse=1 WtCom= 1.00D+00 WtEn= 0.00D+00
 Coeff-Com:  0.603D-01 0.940D+00
 Coeff:      0.603D-01 0.940D+00
 Gap=     0.228 Goal=   None    Shift=    0.000
 RMSDP=1.66D-05 MaxDP=1.18D-03 DE=-2.63D-05 OVMax= 5.82D-04

 Cycle   9  Pass 1  IDiag  1:
 RMSU=  7.85D-06    CP:  9.71D-01  1.02D+00
 E= -691.794680921537     Delta-E=        0.000001678072 Rises=F Damp=F
 DIIS: error= 5.69D-05 at cycle   3 NSaved=   3.
 NSaved= 3 IEnMin= 2 EnMin= -691.794682599609     IErMin= 2 ErrMin= 3.71D-05
 ErrMax= 5.69D-05  0.00D+00 EMaxC= 1.00D-01 BMatC= 3.74D-06 BMatP= 1.70D-06
 IDIUse=1 WtCom= 1.00D+00 WtEn= 0.00D+00
 Coeff-Com: -0.632D-02 0.600D+00 0.406D+00
 Coeff:     -0.632D-02 0.600D+00 0.406D+00
 Gap=     0.228 Goal=   None    Shift=    0.000
 RMSDP=3.74D-06 MaxDP=2.54D-04 DE= 1.68D-06 OVMax= 3.82D-04

 Cycle  10  Pass 1  IDiag  1:
 RMSU=  3.11D-06    CP:  9.71D-01  1.02D+00  7.76D-01
 E= -691.794683975351     Delta-E=       -0.000003053814 Rises=F Damp=F
 DIIS: error= 4.12D-06 at cycle   4 NSaved=   4.
 NSaved= 4 IEnMin= 4 EnMin= -691.794683975351     IErMin= 4 ErrMin= 4.12D-06
 ErrMax= 4.12D-06  0.00D+00 EMaxC= 1.00D-01 BMatC= 7.14D-09 BMatP= 1.70D-06
 IDIUse=1 WtCom= 1.00D+00 WtEn= 0.00D+00
 Coeff-Com: -0.317D-02 0.266D+00 0.183D+00 0.554D+00
 Coeff:     -0.317D-02 0.266D+00 0.183D+00 0.554D+00
 Gap=     0.228 Goal=   None    Shift=    0.000
 RMSDP=3.01D-07 MaxDP=2.50D-05 DE=-3.05D-06 OVMax= 3.51D-05

 Cycle  11  Pass 1  IDiag  1:
 RMSU=  2.10D-07    CP:  9.71D-01  1.02D+00  7.73D-01  1.06D+00
 E= -691.794683981150     Delta-E=       -0.000000005798 Rises=F Damp=F
 DIIS: error= 2.04D-06 at cycle   5 NSaved=   5.
 NSaved= 5 IEnMin= 5 EnMin= -691.794683981150     IErMin= 5 ErrMin= 2.04D-06
 ErrMax= 2.04D-06  0.00D+00 EMaxC= 1.00D-01 BMatC= 1.86D-09 BMatP= 7.14D-09
 IDIUse=1 WtCom= 1.00D+00 WtEn= 0.00D+00
 Coeff-Com: -0.100D-02 0.743D-01 0.515D-01 0.338D+00 0.537D+00
 Coeff:     -0.100D-02 0.743D-01 0.515D-01 0.338D+00 0.537D+00
 Gap=     0.228 Goal=   None    Shift=    0.000
 RMSDP=1.53D-07 MaxDP=1.30D-05 DE=-5.80D-09 OVMax= 1.59D-05

 Cycle  12  Pass 1  IDiag  1:
 RMSU=  6.70D-08    CP:  9.71D-01  1.02D+00  7.85D-01  1.05D+00  7.14D-01
 E= -691.794683983069     Delta-E=       -0.000000001919 Rises=F Damp=F
 DIIS: error= 3.48D-07 at cycle   6 NSaved=   6.
 NSaved= 6 IEnMin= 6 EnMin= -691.794683983069     IErMin= 6 ErrMin= 3.48D-07
 ErrMax= 3.48D-07  0.00D+00 EMaxC= 1.00D-01 BMatC= 9.41D-11 BMatP= 1.86D-09
 IDIUse=1 WtCom= 1.00D+00 WtEn= 0.00D+00
 Coeff-Com: -0.297D-04-0.215D-02-0.172D-02 0.723D-01 0.229D+00 0.703D+00
 Coeff:     -0.297D-04-0.215D-02-0.172D-02 0.723D-01 0.229D+00 0.703D+00
 Gap=     0.228 Goal=   None    Shift=    0.000
 RMSDP=4.13D-08 MaxDP=1.87D-06 DE=-1.92D-09 OVMax= 2.49D-06

 Cycle  13  Pass 1  IDiag  1:
 RMSU=  1.99D-08    CP:  9.71D-01  1.02D+00  7.87D-01  1.06D+00  7.56D-01
                    CP:  1.01D+00
 E= -691.794683983091     Delta-E=       -0.000000000022 Rises=F Damp=F
 DIIS: error= 1.11D-07 at cycle   7 NSaved=   7.
 NSaved= 7 IEnMin= 7 EnMin= -691.794683983091     IErMin= 7 ErrMin= 1.11D-07
 ErrMax= 1.11D-07  0.00D+00 EMaxC= 1.00D-01 BMatC= 1.66D-11 BMatP= 9.41D-11
 IDIUse=1 WtCom= 1.00D+00 WtEn= 0.00D+00
 Coeff-Com:  0.632D-04-0.701D-02-0.505D-02 0.125D-01 0.847D-01 0.391D+00
 Coeff-Com:  0.524D+00
 Coeff:      0.632D-04-0.701D-02-0.505D-02 0.125D-01 0.847D-01 0.391D+00
 Coeff:      0.524D+00
 Gap=     0.228 Goal=   None    Shift=    0.000
 RMSDP=6.90D-09 MaxDP=3.33D-07 DE=-2.18D-11 OVMax= 8.80D-07

 SCF Done:  E(RPBE1PBE) =  -691.794683983     A.U. after   13 cycles
            NFock= 13  Conv=0.69D-08     -V/T= 2.0047
 KE= 6.885837123328D+02 PE=-3.582500618104D+03 EE= 1.216419056108D+03
 Leave Link  502 at Fri May 17 10:28:52 2024, MaxMem=  6291456000 cpu:      7368.1
 (Enter /home/madghost/g09/l601.exe)
 Copying SCF densities to generalized density rwf, IOpCl= 0 IROHF=0.

 **********************************************************************

            Population analysis using the SCF density.

 **********************************************************************

 Orbital symmetries:
       Occupied  (A) (A) (A) (A) (A) (A) (A) (A) (A) (A) (A) (A)
                 (A) (A) (A) (A) (A) (A) (A) (A) (A) (A) (A) (A)
                 (A) (A) (A) (A) (A) (A) (A) (A) (A) (A) (A) (A)
                 (A) (A) (A) (A) (A) (A) (A) (A) (A) (A) (A) (A)
                 (A) (A) (A) (A) (A) (A) (A) (A) (A)
       Virtual   (A) (A) (A) (A) (A) (A) (A) (A) (A) (A) (A) (A)
                 (A) (A) (A) (A) (A) (A) (A) (A) (A) (A) (A) (A)
                 (A) (A) (A) (A) (A) (A) (A) (A) (A) (A) (A) (A)
                 (A) (A) (A) (A) (A) (A) (A) (A) (A) (A) (A) (A)
                 (A) (A) (A) (A) (A) (A) (A) (A) (A) (A) (A) (A)
                 (A) (A) (A) (A) (A) (A) (A) (A) (A) (A) (A) (A)
                 (A) (A) (A) (A) (A) (A) (A) (A) (A) (A) (A) (A)
                 (A) (A) (A) (A) (A) (A) (A) (A) (A) (A) (A) (A)
                 (A) (A) (A) (A) (A) (A) (A) (A) (A) (A) (A) (A)
                 (A) (A) (A) (A) (A) (A) (A) (A) (A) (A) (A) (A)
                 (A) (A) (A) (A) (A) (A) (A) (A) (A) (A) (A) (A)
                 (A) (A) (A) (A) (A) (A) (A) (A) (A) (A) (A) (A)
                 (A) (A) (A) (A) (A) (A) (A) (A) (A) (A) (A) (A)
                 (A) (A) (A) (A) (A) (A) (A) (A) (A) (A) (A) (A)
                 (A) (A) (A) (A) (A) (A) (A) (A) (A) (A) (A) (A)
                 (A) (A) (A) (A) (A) (A) (A) (A) (A) (A) (A) (A)
                 (A) (A) (A) (A) (A) (A) (A) (A) (A) (A) (A) (A)
                 (A) (A) (A) (A) (A) (A) (A) (A) (A) (A) (A) (A)
                 (A) (A) (A) (A) (A) (A) (A) (A) (A) (A) (A) (A)
                 (A) (A) (A) (A) (A) (A) (A) (A) (A) (A) (A) (A)
                 (A) (A) (A) (A) (A) (A) (A) (A) (A) (A) (A) (A)
                 (A) (A) (A) (A) (A) (A) (A) (A) (A) (A) (A) (A)
                 (A) (A) (A) (A) (A) (A) (A) (A) (A) (A) (A) (A)
                 (A) (A) (A) (A) (A) (A) (A) (A) (A) (A) (A) (A)
                 (A) (A) (A) (A) (A) (A) (A) (A) (A) (A) (A) (A)
                 (A) (A) (A) (A) (A) (A) (A) (A) (A) (A) (A) (A)
                 (A) (A) (A) (A) (A) (A) (A) (A) (A) (A) (A) (A)
                 (A) (A) (A) (A) (A) (A) (A) (A) (A) (A) (A) (A)
                 (A) (A) (A) (A) (A) (A) (A) (A) (A) (A) (A) (A)
                 (A) (A) (A) (A) (A) (A) (A) (A) (A) (A) (A) (A)
                 (A) (A) (A) (A) (A) (A) (A) (A) (A) (A) (A) (A)
                 (A) (A) (A) (A) (A) (A) (A) (A) (A) (A) (A) (A)
                 (A) (A) (A) (A) (A) (A) (A) (A) (A) (A) (A) (A)
                 (A) (A) (A) (A) (A) (A) (A) (A) (A) (A) (A) (A)
                 (A) (A) (A) (A) (A) (A) (A) (A) (A) (A) (A) (A)
                 (A) (A) (A) (A) (A) (A) (A) (A) (A) (A) (A) (A)
                 (A) (A) (A) (A) (A) (A) (A) (A) (A) (A) (A) (A)
                 (A) (A) (A) (A) (A) (A) (A) (A) (A) (A) (A) (A)
                 (A) (A) (A) (A) (A) (A) (A) (A) (A) (A) (A) (A)
                 (A) (A) (A) (A) (A) (A) (A) (A) (A) (A) (A) (A)
                 (A) (A) (A) (A) (A) (A) (A) (A) (A) (A) (A) (A)
                 (A) (A) (A) (A) (A) (A) (A) (A) (A) (A) (A) (A)
                 (A) (A) (A) (A) (A) (A) (A) (A) (A) (A) (A) (A)
                 (A) (A) (A) (A) (A) (A) (A) (A) (A) (A) (A) (A)
                 (A) (A) (A) (A) (A) (A) (A) (A) (A) (A) (A) (A)
                 (A) (A) (A) (A) (A) (A) (A) (A) (A) (A) (A) (A)
                 (A) (A) (A) (A) (A) (A) (A) (A) (A) (A) (A) (A)
                 (A) (A) (A) (A) (A) (A) (A) (A) (A) (A) (A) (A)
                 (A) (A) (A) (A) (A) (A) (A) (A) (A) (A) (A) (A)
                 (A) (A) (A) (A) (A) (A) (A) (A) (A) (A) (A) (A)
                 (A) (A) (A) (A) (A) (A) (A) (A) (A) (A) (A) (A)
                 (A) (A) (A) (A) (A) (A) (A) (A) (A) (A) (A) (A)
                 (A) (A) (A) (A) (A) (A) (A) (A) (A) (A) (A)
 The electronic state is 1-A.
 Alpha  occ. eigenvalues --  -19.24778 -19.24666 -10.29014 -10.28923 -10.28512
 Alpha  occ. eigenvalues --  -10.28463 -10.23079 -10.23018 -10.22957 -10.22933
 Alpha  occ. eigenvalues --  -10.22806 -10.22704 -10.22371 -10.22345 -10.22117
 Alpha  occ. eigenvalues --  -10.22101  -1.11569  -1.10718  -0.88761  -0.88446
 Alpha  occ. eigenvalues --   -0.81726  -0.77886  -0.77598  -0.77283  -0.74383
 Alpha  occ. eigenvalues --   -0.68506  -0.63677  -0.63344  -0.61593  -0.60763
 Alpha  occ. eigenvalues --   -0.57222  -0.55626  -0.52312  -0.51300  -0.50711
 Alpha  occ. eigenvalues --   -0.49257  -0.49093  -0.46910  -0.46020  -0.45380
 Alpha  occ. eigenvalues --   -0.44031  -0.43731  -0.43131  -0.40850  -0.39972
 Alpha  occ. eigenvalues --   -0.38584  -0.38049  -0.37599  -0.37099  -0.34963
 Alpha  occ. eigenvalues --   -0.34482  -0.33980  -0.33897  -0.27208  -0.27141
 Alpha  occ. eigenvalues --   -0.24223  -0.23875
 Alpha virt. eigenvalues --   -0.01098  -0.00993   0.00433   0.00568   0.04734
 Alpha virt. eigenvalues --    0.05514   0.06765   0.07347   0.07682   0.08478
 Alpha virt. eigenvalues --    0.09754   0.09854   0.10810   0.11223   0.12690
 Alpha virt. eigenvalues --    0.12924   0.13455   0.13512   0.14448   0.15437
 Alpha virt. eigenvalues --    0.15897   0.16023   0.17437   0.17744   0.19326
 Alpha virt. eigenvalues --    0.20107   0.20739   0.21261   0.21626   0.21877
 Alpha virt. eigenvalues --    0.22539   0.22847   0.23550   0.23798   0.24245
 Alpha virt. eigenvalues --    0.24656   0.25075   0.25362   0.25653   0.26369
 Alpha virt. eigenvalues --    0.27118   0.27679   0.28968   0.29416   0.29949
 Alpha virt. eigenvalues --    0.30394   0.31635   0.32538   0.33078   0.33530
 Alpha virt. eigenvalues --    0.34555   0.34783   0.35812   0.35954   0.36510
 Alpha virt. eigenvalues --    0.36887   0.37323   0.38017   0.38084   0.39353
 Alpha virt. eigenvalues --    0.39720   0.40221   0.40904   0.41263   0.41989
 Alpha virt. eigenvalues --    0.42780   0.43096   0.43332   0.43842   0.44074
 Alpha virt. eigenvalues --    0.44564   0.44771   0.45434   0.46065   0.46677
 Alpha virt. eigenvalues --    0.47007   0.47571   0.47734   0.48550   0.49843
 Alpha virt. eigenvalues --    0.50135   0.50348   0.50701   0.50796   0.51445
 Alpha virt. eigenvalues --    0.51782   0.53323   0.53510   0.54306   0.55960
 Alpha virt. eigenvalues --    0.56047   0.58187   0.58541   0.60231   0.60790
 Alpha virt. eigenvalues --    0.62767   0.63730   0.64976   0.65132   0.65174
 Alpha virt. eigenvalues --    0.66061   0.67003   0.67347   0.68281   0.68785
 Alpha virt. eigenvalues --    0.69512   0.70085   0.70154   0.70315   0.71549
 Alpha virt. eigenvalues --    0.72079   0.72717   0.73752   0.73975   0.74987
 Alpha virt. eigenvalues --    0.76006   0.76266   0.76782   0.77984   0.78920
 Alpha virt. eigenvalues --    0.80244   0.80879   0.81413   0.82082   0.82669
 Alpha virt. eigenvalues --    0.84115   0.84942   0.85321   0.85529   0.86689
 Alpha virt. eigenvalues --    0.87951   0.88384   0.89753   0.90160   0.91884
 Alpha virt. eigenvalues --    0.93532   0.94275   0.95487   0.96232   0.96948
 Alpha virt. eigenvalues --    0.97718   0.98244   0.98417   0.99270   0.99459
 Alpha virt. eigenvalues --    0.99617   1.01081   1.01422   1.02313   1.02979
 Alpha virt. eigenvalues --    1.04806   1.05018   1.05420   1.07191   1.08508
 Alpha virt. eigenvalues --    1.09103   1.09924   1.10076   1.11589   1.12225
 Alpha virt. eigenvalues --    1.13089   1.13878   1.15180   1.16389   1.17101
 Alpha virt. eigenvalues --    1.18238   1.18577   1.19004   1.19548   1.20739
 Alpha virt. eigenvalues --    1.21526   1.22328   1.22607   1.23117   1.23365
 Alpha virt. eigenvalues --    1.24577   1.25362   1.26460   1.27889   1.28978
 Alpha virt. eigenvalues --    1.29896   1.30682   1.31215   1.31731   1.32723
 Alpha virt. eigenvalues --    1.33266   1.33640   1.33705   1.34675   1.35012
 Alpha virt. eigenvalues --    1.35834   1.36552   1.37979   1.38921   1.39538
 Alpha virt. eigenvalues --    1.40421   1.41146   1.41854   1.43478   1.43516
 Alpha virt. eigenvalues --    1.45417   1.45608   1.46990   1.47395   1.48018
 Alpha virt. eigenvalues --    1.48732   1.49829   1.50020   1.50285   1.51059
 Alpha virt. eigenvalues --    1.53111   1.53542   1.54220   1.54642   1.55907
 Alpha virt. eigenvalues --    1.56289   1.57370   1.59191   1.59597   1.59917
 Alpha virt. eigenvalues --    1.61328   1.62215   1.62737   1.63582   1.64487
 Alpha virt. eigenvalues --    1.65982   1.67264   1.67703   1.68141   1.69601
 Alpha virt. eigenvalues --    1.70736   1.71684   1.72115   1.72417   1.74749
 Alpha virt. eigenvalues --    1.75353   1.76422   1.81020   1.81310   1.82970
 Alpha virt. eigenvalues --    1.85714   1.86109   1.87184   1.88004   1.92036
 Alpha virt. eigenvalues --    1.92836   1.93557   1.95791   1.96454   1.97018
 Alpha virt. eigenvalues --    1.98393   1.99033   2.00443   2.00506   2.01201
 Alpha virt. eigenvalues --    2.02147   2.02824   2.04215   2.06049   2.07313
 Alpha virt. eigenvalues --    2.08256   2.09638   2.10985   2.12902   2.14590
 Alpha virt. eigenvalues --    2.17318   2.20205   2.21443   2.22853   2.24599
 Alpha virt. eigenvalues --    2.26252   2.27149   2.28039   2.29188   2.29479
 Alpha virt. eigenvalues --    2.30938   2.34080   2.35351   2.36261   2.36393
 Alpha virt. eigenvalues --    2.38400   2.38642   2.39038   2.39565   2.41771
 Alpha virt. eigenvalues --    2.43895   2.45986   2.47352   2.50682   2.51186
 Alpha virt. eigenvalues --    2.55265   2.55776   2.58499   2.59840   2.60547
 Alpha virt. eigenvalues --    2.63563   2.64410   2.64907   2.65693   2.65980
 Alpha virt. eigenvalues --    2.67153   2.69120   2.69586   2.70818   2.72386
 Alpha virt. eigenvalues --    2.73101   2.73827   2.74455   2.75059   2.77239
 Alpha virt. eigenvalues --    2.78188   2.78396   2.78875   2.79270   2.80311
 Alpha virt. eigenvalues --    2.80716   2.81881   2.83002   2.83912   2.84369
 Alpha virt. eigenvalues --    2.84673   2.86063   2.86605   2.87095   2.88945
 Alpha virt. eigenvalues --    2.91253   2.91502   2.91909   2.92482   2.92784
 Alpha virt. eigenvalues --    2.93131   2.93454   2.94303   2.96663   2.98199
 Alpha virt. eigenvalues --    2.98538   2.99316   2.99954   3.02034   3.03583
 Alpha virt. eigenvalues --    3.04426   3.04481   3.04876   3.05125   3.05776
 Alpha virt. eigenvalues --    3.05988   3.06455   3.06813   3.07103   3.07255
 Alpha virt. eigenvalues --    3.07999   3.09461   3.10460   3.10775   3.12133
 Alpha virt. eigenvalues --    3.12925   3.14200   3.14863   3.15450   3.15505
 Alpha virt. eigenvalues --    3.15854   3.16683   3.17194   3.17499   3.17894
 Alpha virt. eigenvalues --    3.18854   3.19353   3.20589   3.21155   3.21619
 Alpha virt. eigenvalues --    3.22920   3.23405   3.24848   3.25918   3.27100
 Alpha virt. eigenvalues --    3.27555   3.27797   3.29245   3.30384   3.31702
 Alpha virt. eigenvalues --    3.32852   3.33041   3.33570   3.33674   3.34034
 Alpha virt. eigenvalues --    3.35000   3.35306   3.36359   3.36481   3.36526
 Alpha virt. eigenvalues --    3.36770   3.37896   3.38736   3.39373   3.40836
 Alpha virt. eigenvalues --    3.41572   3.42748   3.43152   3.43502   3.43981
 Alpha virt. eigenvalues --    3.46158   3.47033   3.48101   3.49227   3.49750
 Alpha virt. eigenvalues --    3.50905   3.52030   3.52821   3.53894   3.54879
 Alpha virt. eigenvalues --    3.55982   3.56145   3.57557   3.58992   3.59726
 Alpha virt. eigenvalues --    3.60316   3.61221   3.62182   3.62769   3.66896
 Alpha virt. eigenvalues --    3.67224   3.68237   3.68740   3.69872   3.71230
 Alpha virt. eigenvalues --    3.72508   3.73056   3.74869   3.76123   3.77328
 Alpha virt. eigenvalues --    3.78231   3.78562   3.78684   3.78975   3.79121
 Alpha virt. eigenvalues --    3.79730   3.80193   3.81124   3.81656   3.82543
 Alpha virt. eigenvalues --    3.82998   3.83286   3.84097   3.84533   3.85371
 Alpha virt. eigenvalues --    3.85790   3.86362   3.87988   3.88404   3.88573
 Alpha virt. eigenvalues --    3.89787   3.91840   3.91938   3.93025   3.93134
 Alpha virt. eigenvalues --    3.93372   3.95607   3.96643   3.98941   3.99167
 Alpha virt. eigenvalues --    4.00658   4.00727   4.04183   4.05601   4.06981
 Alpha virt. eigenvalues --    4.08130   4.09170   4.10016   4.10126   4.11038
 Alpha virt. eigenvalues --    4.12477   4.13258   4.14518   4.16285   4.16530
 Alpha virt. eigenvalues --    4.17887   4.18890   4.20270   4.21838   4.22077
 Alpha virt. eigenvalues --    4.22473   4.23689   4.24563   4.25285   4.25487
 Alpha virt. eigenvalues --    4.26077   4.26363   4.27334   4.27739   4.28405
 Alpha virt. eigenvalues --    4.29147   4.29283   4.31347   4.32488   4.32643
 Alpha virt. eigenvalues --    4.33543   4.34570   4.35570   4.35967   4.36644
 Alpha virt. eigenvalues --    4.38024   4.41211   4.41322   4.43844   4.45137
 Alpha virt. eigenvalues --    4.45329   4.50954   4.51252   4.54234   4.55743
 Alpha virt. eigenvalues --    4.56830   4.58336   4.60223   4.61480   4.62383
 Alpha virt. eigenvalues --    4.62931   4.65365   4.66087   4.66419   4.66825
 Alpha virt. eigenvalues --    4.68245   4.69613   4.70381   4.70624   4.72161
 Alpha virt. eigenvalues --    4.72715   4.73788   4.75540   4.76377   4.78024
 Alpha virt. eigenvalues --    4.78361   4.79744   4.80027   4.81599   4.82027
 Alpha virt. eigenvalues --    4.82814   4.84432   4.86289   4.87403   4.88661
 Alpha virt. eigenvalues --    4.89166   4.90827   4.92539   4.98079   4.99325
 Alpha virt. eigenvalues --    4.99611   5.00516   5.00751   5.01735   5.04321
 Alpha virt. eigenvalues --    5.04846   5.07835   5.10619   5.12030   5.12298
 Alpha virt. eigenvalues --    5.15499   5.21333   5.21825   5.22464   5.23413
 Alpha virt. eigenvalues --    5.30056   5.31157   5.32306   5.33191   5.33840
 Alpha virt. eigenvalues --    5.35835   5.36554   5.36773   5.38032   5.39983
 Alpha virt. eigenvalues --    5.41409   5.42358   5.42876   5.44856   5.45600
 Alpha virt. eigenvalues --    5.49255   5.49922   5.52615   5.56496   5.58928
 Alpha virt. eigenvalues --    5.59954   5.61538   5.63367   5.65077   5.68339
 Alpha virt. eigenvalues --    5.69943   5.72082   5.74033   5.75215   5.81433
 Alpha virt. eigenvalues --    5.82136   5.91225   5.91717   5.95304   5.96411
 Alpha virt. eigenvalues --    6.00280   6.00727   6.06315   6.12742   6.14983
 Alpha virt. eigenvalues --    6.16277   6.28729   6.30451   6.48412   6.50488
 Alpha virt. eigenvalues --    6.53019   6.58917   6.76211   6.79215   6.84653
 Alpha virt. eigenvalues --    6.85746   6.95102   6.95235   6.99795   7.05026
 Alpha virt. eigenvalues --    7.35468   7.40959   7.51896   7.56177  22.68479
 Alpha virt. eigenvalues --   22.74008  23.19703  23.20310  23.27584  23.27979
 Alpha virt. eigenvalues --   23.31183  23.31745  23.37945  23.38285  23.47301
 Alpha virt. eigenvalues --   23.57195  24.15954  24.16127  44.56921  44.66708
          Condensed to atoms (all electrons):
               1          2          3          4          5          6
     1  C    4.703888   0.387801   0.452788   0.310951  -0.039941  -0.007832
     2  H    0.387801   0.573248  -0.019554  -0.022906   0.008123  -0.011904
     3  H    0.452788  -0.019554   0.609402  -0.094577  -0.009005   0.010313
     4  C    0.310951  -0.022906  -0.094577   4.916764   0.423731   0.383059
     5  H   -0.039941   0.008123  -0.009005   0.423731   0.600493  -0.043495
     6  H   -0.007832  -0.011904   0.010313   0.383059  -0.043495   0.599243
     7  O    0.277627  -0.027523  -0.037411  -0.043530   0.000343   0.005679
     8  O   -0.041995   0.006708   0.010272   0.245949  -0.042288  -0.038219
     9  C   -0.077274   0.006724  -0.029024   0.028172   0.013831  -0.003366
    10  C   -0.005087  -0.000629   0.005134   0.000181  -0.000981   0.000799
    11  C    0.005022  -0.002139   0.015272  -0.014229  -0.005335   0.003084
    12  C   -0.000736   0.000173  -0.001115   0.000615   0.000518  -0.000264
    13  C   -0.004030   0.000457  -0.005014   0.003232   0.004138  -0.000679
    14  C    0.000374  -0.000080   0.001029  -0.000568  -0.000707   0.000163
    15  H    0.000491  -0.000242   0.000376  -0.000524  -0.000044   0.000161
    16  H    0.006048  -0.001047   0.010287  -0.010387  -0.009397   0.001843
    17  H    0.000017   0.000000  -0.000005   0.000005   0.000003  -0.000002
    18  H    0.000098   0.000003  -0.000102  -0.000027   0.000204  -0.000010
    19  H   -0.000005   0.000000   0.000004   0.000002  -0.000002   0.000000
    20  C    0.002095   0.000056   0.002952  -0.052352  -0.006120  -0.004185
    21  C   -0.000518   0.000065  -0.000296  -0.024456   0.006299   0.006914
    22  C    0.001003   0.000225   0.000672  -0.012543   0.002205   0.003441
    23  C   -0.000462  -0.000001  -0.000124   0.001568  -0.000413  -0.003026
    24  C   -0.000125  -0.000003  -0.000056   0.000958  -0.000137  -0.000464
    25  C    0.000071   0.000002   0.000024  -0.000756  -0.000042   0.000306
    26  H    0.000170   0.000011   0.000035   0.002693   0.000437   0.001448
    27  H    0.000208   0.000070   0.000218  -0.002250   0.000151   0.000251
    28  H    0.000001   0.000000   0.000000  -0.000105   0.000015   0.000000
    29  H   -0.000001   0.000000   0.000000   0.000036   0.000000  -0.000002
    30  H    0.000000   0.000000   0.000000   0.000001   0.000000   0.000003
               7          8          9         10         11         12
     1  C    0.277627  -0.041995  -0.077274  -0.005087   0.005022  -0.000736
     2  H   -0.027523   0.006708   0.006724  -0.000629  -0.002139   0.000173
     3  H   -0.037411   0.010272  -0.029024   0.005134   0.015272  -0.001115
     4  C   -0.043530   0.245949   0.028172   0.000181  -0.014229   0.000615
     5  H    0.000343  -0.042288   0.013831  -0.000981  -0.005335   0.000518
     6  H    0.005679  -0.038219  -0.003366   0.000799   0.003084  -0.000264
     7  O    7.826589   0.003189   0.353810  -0.048121  -0.080079   0.001786
     8  O    0.003189   7.844743  -0.000663   0.000051  -0.002331  -0.000009
     9  C    0.353810  -0.000663   4.960043   0.385667   0.182896   0.041259
    10  C   -0.048121   0.000051   0.385667   4.961603   0.116473   0.494987
    11  C   -0.080079  -0.002331   0.182896   0.116473   5.301655  -0.131242
    12  C    0.001786  -0.000009   0.041259   0.494987  -0.131242   4.818889
    13  C    0.010018  -0.000193   0.126932  -0.123154   0.279493   0.031817
    14  C   -0.000515   0.000016  -0.120191   0.006505   0.047610   0.486414
    15  H    0.011096   0.000001  -0.065484   0.427795   0.019682  -0.038839
    16  H   -0.006695   0.004236  -0.060413   0.005179   0.438734  -0.001174
    17  H   -0.000190   0.000000   0.012565  -0.037140  -0.004044   0.417836
    18  H   -0.000180  -0.000011   0.001440   0.002540  -0.019909   0.003237
    19  H    0.000015   0.000000  -0.001217   0.006584   0.009732  -0.031233
    20  C    0.000691   0.365986  -0.000203   0.000054  -0.000296  -0.000008
    21  C   -0.000169  -0.076744   0.000276  -0.000011   0.000039   0.000005
    22  C    0.000049  -0.051013   0.000008   0.000003  -0.000081   0.000000
    23  C   -0.000017   0.009145   0.000015  -0.000002   0.000042   0.000000
    24  C   -0.000001   0.002693   0.000001   0.000000   0.000007   0.000000
    25  C    0.000001  -0.000652   0.000000   0.000000  -0.000005   0.000000
    26  H    0.000081  -0.007340   0.000010   0.000027   0.000080  -0.000006
    27  H    0.000004   0.010324   0.000005   0.000000  -0.000014   0.000000
    28  H    0.000000  -0.000186   0.000000   0.000000   0.000000   0.000000
    29  H    0.000000  -0.000171   0.000000   0.000000   0.000000   0.000000
    30  H    0.000000   0.000016   0.000000   0.000000   0.000000   0.000000
              13         14         15         16         17         18
     1  C   -0.004030   0.000374   0.000491   0.006048   0.000017   0.000098
     2  H    0.000457  -0.000080  -0.000242  -0.001047   0.000000   0.000003
     3  H   -0.005014   0.001029   0.000376   0.010287  -0.000005  -0.000102
     4  C    0.003232  -0.000568  -0.000524  -0.010387   0.000005  -0.000027
     5  H    0.004138  -0.000707  -0.000044  -0.009397   0.000003   0.000204
     6  H   -0.000679   0.000163   0.000161   0.001843  -0.000002  -0.000010
     7  O    0.010018  -0.000515   0.011096  -0.006695  -0.000190  -0.000180
     8  O   -0.000193   0.000016   0.000001   0.004236   0.000000  -0.000011
     9  C    0.126932  -0.120191  -0.065484  -0.060413   0.012565   0.001440
    10  C   -0.123154   0.006505   0.427795   0.005179  -0.037140   0.002540
    11  C    0.279493   0.047610   0.019682   0.438734  -0.004044  -0.019909
    12  C    0.031817   0.486414  -0.038839  -0.001174   0.417836   0.003237
    13  C    5.023738   0.465109  -0.005989  -0.028614   0.010340   0.398492
    14  C    0.465109   4.874002   0.012646   0.008257  -0.038267  -0.022030
    15  H   -0.005989   0.012646   0.541588  -0.000183  -0.007650   0.000103
    16  H   -0.028614   0.008257  -0.000183   0.544682   0.000051  -0.004104
    17  H    0.010340  -0.038267  -0.007650   0.000051   0.538013  -0.000500
    18  H    0.398492  -0.022030   0.000103  -0.004104  -0.000500   0.528289
    19  H   -0.032768   0.412269  -0.000290  -0.000349  -0.004223  -0.003771
    20  C   -0.000060   0.000012   0.000004   0.000247   0.000000   0.000001
    21  C    0.000035  -0.000009  -0.000002  -0.000047   0.000000   0.000002
    22  C   -0.000006   0.000001   0.000000   0.000049   0.000000   0.000000
    23  C    0.000007  -0.000001   0.000000  -0.000040   0.000000   0.000000
    24  C    0.000000   0.000000   0.000000  -0.000010   0.000000   0.000000
    25  C    0.000000   0.000000   0.000000   0.000008   0.000000   0.000000
    26  H   -0.000037   0.000005   0.000001   0.000056   0.000000  -0.000001
    27  H   -0.000001   0.000000   0.000000   0.000021   0.000000   0.000000
    28  H    0.000000   0.000000   0.000000   0.000000   0.000000   0.000000
    29  H    0.000000   0.000000   0.000000   0.000000   0.000000   0.000000
    30  H    0.000000   0.000000   0.000000   0.000000   0.000000   0.000000
              19         20         21         22         23         24
     1  C   -0.000005   0.002095  -0.000518   0.001003  -0.000462  -0.000125
     2  H    0.000000   0.000056   0.000065   0.000225  -0.000001  -0.000003
     3  H    0.000004   0.002952  -0.000296   0.000672  -0.000124  -0.000056
     4  C    0.000002  -0.052352  -0.024456  -0.012543   0.001568   0.000958
     5  H   -0.000002  -0.006120   0.006299   0.002205  -0.000413  -0.000137
     6  H    0.000000  -0.004185   0.006914   0.003441  -0.003026  -0.000464
     7  O    0.000015   0.000691  -0.000169   0.000049  -0.000017  -0.000001
     8  O    0.000000   0.365986  -0.076744  -0.051013   0.009145   0.002693
     9  C   -0.001217  -0.000203   0.000276   0.000008   0.000015   0.000001
    10  C    0.006584   0.000054  -0.000011   0.000003  -0.000002   0.000000
    11  C    0.009732  -0.000296   0.000039  -0.000081   0.000042   0.000007
    12  C   -0.031233  -0.000008   0.000005   0.000000   0.000000   0.000000
    13  C   -0.032768  -0.000060   0.000035  -0.000006   0.000007   0.000000
    14  C    0.412269   0.000012  -0.000009   0.000001  -0.000001   0.000000
    15  H   -0.000290   0.000004  -0.000002   0.000000   0.000000   0.000000
    16  H   -0.000349   0.000247  -0.000047   0.000049  -0.000040  -0.000010
    17  H   -0.004223   0.000000   0.000000   0.000000   0.000000   0.000000
    18  H   -0.003771   0.000001   0.000002   0.000000   0.000000   0.000000
    19  H    0.530657   0.000000   0.000000   0.000000   0.000000   0.000000
    20  C    0.000000   4.828082   0.304194   0.417188   0.066264   0.000330
    21  C    0.000000   0.304194   5.156506   0.077312   0.377812  -0.089014
    22  C    0.000000   0.417188   0.077312   4.947002  -0.092983   0.522193
    23  C    0.000000   0.066264   0.377812  -0.092983   4.925840  -0.005573
    24  C    0.000000   0.000330  -0.089014   0.522193  -0.005573   4.789796
    25  C    0.000000  -0.084219  -0.006706  -0.017999   0.525118   0.517329
    26  H    0.000000  -0.042449   0.423090   0.002978  -0.018184   0.001116
    27  H    0.000000  -0.065242   0.017964   0.426754  -0.004863  -0.035568
    28  H    0.000000  -0.001472  -0.017404   0.003580   0.395226   0.002148
    29  H    0.000000   0.010810  -0.002683  -0.033716   0.008619   0.413798
    30  H    0.000000  -0.000315   0.008572   0.005677  -0.030355  -0.029788
              25         26         27         28         29         30
     1  C    0.000071   0.000170   0.000208   0.000001  -0.000001   0.000000
     2  H    0.000002   0.000011   0.000070   0.000000   0.000000   0.000000
     3  H    0.000024   0.000035   0.000218   0.000000   0.000000   0.000000
     4  C   -0.000756   0.002693  -0.002250  -0.000105   0.000036   0.000001
     5  H   -0.000042   0.000437   0.000151   0.000015   0.000000   0.000000
     6  H    0.000306   0.001448   0.000251   0.000000  -0.000002   0.000003
     7  O    0.000001   0.000081   0.000004   0.000000   0.000000   0.000000
     8  O   -0.000652  -0.007340   0.010324  -0.000186  -0.000171   0.000016
     9  C    0.000000   0.000010   0.000005   0.000000   0.000000   0.000000
    10  C    0.000000   0.000027   0.000000   0.000000   0.000000   0.000000
    11  C   -0.000005   0.000080  -0.000014   0.000000   0.000000   0.000000
    12  C    0.000000  -0.000006   0.000000   0.000000   0.000000   0.000000
    13  C    0.000000  -0.000037  -0.000001   0.000000   0.000000   0.000000
    14  C    0.000000   0.000005   0.000000   0.000000   0.000000   0.000000
    15  H    0.000000   0.000001   0.000000   0.000000   0.000000   0.000000
    16  H    0.000008   0.000056   0.000021   0.000000   0.000000   0.000000
    17  H    0.000000   0.000000   0.000000   0.000000   0.000000   0.000000
    18  H    0.000000  -0.000001   0.000000   0.000000   0.000000   0.000000
    19  H    0.000000   0.000000   0.000000   0.000000   0.000000   0.000000
    20  C   -0.084219  -0.042449  -0.065242  -0.001472   0.010810  -0.000315
    21  C   -0.006706   0.423090   0.017964  -0.017404  -0.002683   0.008572
    22  C   -0.017999   0.002978   0.426754   0.003580  -0.033716   0.005677
    23  C    0.525118  -0.018184  -0.004863   0.395226   0.008619  -0.030355
    24  C    0.517329   0.001116  -0.035568   0.002148   0.413798  -0.029788
    25  C    4.826814   0.004472   0.011643  -0.019174  -0.035197   0.409288
    26  H    0.004472   0.537305  -0.000225  -0.002856   0.000067  -0.000402
    27  H    0.011643  -0.000225   0.545181   0.000119  -0.007258  -0.000316
    28  H   -0.019174  -0.002856   0.000119   0.529408  -0.000520  -0.003687
    29  H   -0.035197   0.000067  -0.007258  -0.000520   0.537152  -0.004041
    30  H    0.409288  -0.000402  -0.000316  -0.003687  -0.004041   0.531051
 Mulliken charges:
               1
     1  C    0.029354
     2  H    0.102361
     3  H    0.077503
     4  C   -0.038709
     5  H    0.097417
     6  H    0.096742
     7  O   -0.246545
     8  O   -0.241517
     9  C    0.244182
    10  C   -0.198454
    11  C   -0.160117
    12  C   -0.092909
    13  C   -0.153263
    14  C   -0.132044
    15  H    0.105303
    16  H    0.102763
    17  H    0.113191
    18  H    0.116236
    19  H    0.114591
    20  C    0.257957
    21  C   -0.161027
    22  C   -0.201998
    23  C   -0.153613
    24  C   -0.089629
    25  C   -0.130325
    26  H    0.097418
    27  H    0.102825
    28  H    0.114905
    29  H    0.113106
    30  H    0.114296
 Sum of Mulliken charges =   0.00000
 Mulliken charges with hydrogens summed into heavy atoms:
               1
     1  C    0.209218
     4  C    0.155450
     7  O   -0.246545
     8  O   -0.241517
     9  C    0.244182
    10  C   -0.093151
    11  C   -0.057354
    12  C    0.020282
    13  C   -0.037027
    14  C   -0.017453
    20  C    0.257957
    21  C   -0.063609
    22  C   -0.099174
    23  C   -0.038708
    24  C    0.023477
    25  C   -0.016029
 Electronic spatial extent (au):  <R**2>=           5591.3349
 Charge=              0.0000 electrons
 Dipole moment (field-independent basis, Debye):
    X=              0.1500    Y=             -0.4699    Z=             -0.0459  Tot=              0.4954
 Quadrupole moment (field-independent basis, Debye-Ang):
   XX=            -90.8360   YY=            -93.0435   ZZ=            -91.8083
   XY=              1.3752   XZ=              2.1477   YZ=              1.0380
 Traceless Quadrupole moment (field-independent basis, Debye-Ang):
   XX=              1.0599   YY=             -1.1476   ZZ=              0.0876
   XY=              1.3752   XZ=              2.1477   YZ=              1.0380
 Octapole moment (field-independent basis, Debye-Ang**2):
  XXX=             10.1009  YYY=             14.8874  ZZZ=             -0.2924  XYY=             -2.4636
  XXY=            -26.0195  XXZ=             -4.5917  XZZ=             -0.2713  YZZ=              2.1193
  YYZ=              1.3672  XYZ=             18.5831
 Hexadecapole moment (field-independent basis, Debye-Ang**3):
 XXXX=          -6199.2469 YYYY=           -729.0861 ZZZZ=           -439.6033 XXXY=             19.6292
 XXXZ=            204.5801 YYYX=              7.6021 YYYZ=             -1.6202 ZZZX=             20.2768
 ZZZY=              0.1489 XXYY=          -1201.2042 XXZZ=          -1162.7401 YYZZ=           -181.2039
 XXYZ=             23.7146 YYXZ=            -32.6347 ZZXY=             -0.6731
 N-N= 9.857031656805D+02 E-N=-3.582500610595D+03  KE= 6.885837123328D+02
 No NMR shielding tensors so no spin-rotation constants.
 Leave Link  601 at Fri May 17 10:28:54 2024, MaxMem=  6291456000 cpu:        18.5
 (Enter /home/madghost/g09/l607.exe)
 ******************************Gaussian NBO Version 3.1******************************
             N A T U R A L   A T O M I C   O R B I T A L   A N D
          N A T U R A L   B O N D   O R B I T A L   A N A L Y S I S
 ******************************Gaussian NBO Version 3.1******************************

       /RESON  / : Allow strongly delocalized NBO set
       /E2PERT / : Analyze NBO Fock matrix
                   Print threshold set to  0.05
       /PLOT   / : Write information for the orbital plotter
       /ARCHIVE/ : Write the archive file to LFN 47
       /BNDIDX / : Print bond indices based on the NAO density matrix
       /FILE   / : Set to JOB62                                               

 Analyzing the SCF density

 Job title: c2h                                                             

 Storage needed:   1440014 in NPA,   1918463 in NBO,   1440952 in NLMO (6291451200 available)


 NATURAL POPULATIONS:  Natural atomic orbital occupancies 
                                                          
   NAO  Atom  No  lang   Type(AO)    Occupancy      Energy
 ----------------------------------------------------------
     1    C    1  S      Cor( 1S)     1.99923     -10.15691
     2    C    1  S      Val( 2S)     1.03667      -0.30485
     3    C    1  S      Ryd( 3S)     0.00230       1.42173
     4    C    1  S      Ryd( 4S)     0.00040       2.04875
     5    C    1  S      Ryd( 5S)     0.00000      21.80464
     6    C    1  px     Val( 2p)     0.80782      -0.09656
     7    C    1  px     Ryd( 3p)     0.00334       1.13322
     8    C    1  px     Ryd( 4p)     0.00013       1.42495
     9    C    1  py     Val( 2p)     1.14330      -0.12817
    10    C    1  py     Ryd( 3p)     0.00192       1.12005
    11    C    1  py     Ryd( 4p)     0.00053       1.89532
    12    C    1  pz     Val( 2p)     1.08828      -0.11965
    13    C    1  pz     Ryd( 3p)     0.00204       1.09877
    14    C    1  pz     Ryd( 4p)     0.00028       1.29829
    15    C    1  dxy    Ryd( 3d)     0.00184       1.81433
    16    C    1  dxy    Ryd( 4d)     0.00015       3.33452
    17    C    1  dxz    Ryd( 3d)     0.00083       1.89479
    18    C    1  dxz    Ryd( 4d)     0.00027       3.35894
    19    C    1  dyz    Ryd( 3d)     0.00076       1.69673
    20    C    1  dyz    Ryd( 4d)     0.00018       3.08244
    21    C    1  dx2y2  Ryd( 3d)     0.00109       1.85643
    22    C    1  dx2y2  Ryd( 4d)     0.00020       3.35733
    23    C    1  dz2    Ryd( 3d)     0.00172       1.85434
    24    C    1  dz2    Ryd( 4d)     0.00017       3.34118
    25    C    1  f(0)   Ryd( 4f)     0.00008       3.93976
    26    C    1  f(C1)  Ryd( 4f)     0.00004       4.05116
    27    C    1  f(S1)  Ryd( 4f)     0.00002       3.79496
    28    C    1  f(C2)  Ryd( 4f)     0.00004       3.86628
    29    C    1  f(S2)  Ryd( 4f)     0.00004       3.82599
    30    C    1  f(C3)  Ryd( 4f)     0.00005       3.93285
    31    C    1  f(S3)  Ryd( 4f)     0.00005       3.99013

    32    H    2  S      Val( 1S)     0.79635      -0.00355
    33    H    2  S      Ryd( 2S)     0.00059       0.94968
    34    H    2  S      Ryd( 3S)     0.00015       1.63090
    35    H    2  px     Ryd( 3p)     0.00006       3.96176
    36    H    2  px     Ryd( 2p)     0.00019       2.19110
    37    H    2  py     Ryd( 3p)     0.00065       4.23868
    38    H    2  py     Ryd( 2p)     0.00004       3.18479
    39    H    2  pz     Ryd( 3p)     0.00002       3.92101
    40    H    2  pz     Ryd( 2p)     0.00021       1.95713
    41    H    2  dxy    Ryd( 3d)     0.00003       4.22512
    42    H    2  dxz    Ryd( 3d)     0.00002       3.66232
    43    H    2  dyz    Ryd( 3d)     0.00003       4.10752
    44    H    2  dx2y2  Ryd( 3d)     0.00007       4.32722
    45    H    2  dz2    Ryd( 3d)     0.00005       3.91823

    46    H    3  S      Val( 1S)     0.81619      -0.01532
    47    H    3  S      Ryd( 2S)     0.00182       0.56675
    48    H    3  S      Ryd( 3S)     0.00018       2.26771
    49    H    3  px     Ryd( 2p)     0.00021       2.70620
    50    H    3  px     Ryd( 3p)     0.00006       3.34682
    51    H    3  py     Ryd( 2p)     0.00017       2.62417
    52    H    3  py     Ryd( 3p)     0.00005       3.42394
    53    H    3  pz     Ryd( 3p)     0.00016       3.80787
    54    H    3  pz     Ryd( 2p)     0.00018       3.68141
    55    H    3  dxy    Ryd( 3d)     0.00002       3.63370
    56    H    3  dxz    Ryd( 3d)     0.00002       4.16469
    57    H    3  dyz    Ryd( 3d)     0.00005       4.13622
    58    H    3  dx2y2  Ryd( 3d)     0.00002       3.68553
    59    H    3  dz2    Ryd( 3d)     0.00002       4.65905

    60    C    4  S      Cor( 1S)     1.99924     -10.15690
    61    C    4  S      Val( 2S)     1.04447      -0.31100
    62    C    4  S      Ryd( 3S)     0.00350       1.47016
    63    C    4  S      Ryd( 4S)     0.00012       1.90042
    64    C    4  S      Ryd( 5S)     0.00000      21.50011
    65    C    4  px     Val( 2p)     0.83871      -0.10431
    66    C    4  px     Ryd( 3p)     0.00187       1.26358
    67    C    4  px     Ryd( 4p)     0.00016       1.64622
    68    C    4  py     Val( 2p)     1.14646      -0.12749
    69    C    4  py     Ryd( 3p)     0.00104       1.16999
    70    C    4  py     Ryd( 4p)     0.00037       1.39395
    71    C    4  pz     Val( 2p)     1.06361      -0.11903
    72    C    4  pz     Ryd( 3p)     0.00185       1.14274
    73    C    4  pz     Ryd( 4p)     0.00023       1.33037
    74    C    4  dxy    Ryd( 3d)     0.00170       1.71393
    75    C    4  dxy    Ryd( 4d)     0.00012       3.35908
    76    C    4  dxz    Ryd( 3d)     0.00117       1.81801
    77    C    4  dxz    Ryd( 4d)     0.00034       3.48110
    78    C    4  dyz    Ryd( 3d)     0.00051       1.64603
    79    C    4  dyz    Ryd( 4d)     0.00015       3.18022
    80    C    4  dx2y2  Ryd( 3d)     0.00112       1.74203
    81    C    4  dx2y2  Ryd( 4d)     0.00031       3.40352
    82    C    4  dz2    Ryd( 3d)     0.00231       1.74461
    83    C    4  dz2    Ryd( 4d)     0.00014       3.40006
    84    C    4  f(0)   Ryd( 4f)     0.00009       3.89652
    85    C    4  f(C1)  Ryd( 4f)     0.00004       4.04630
    86    C    4  f(S1)  Ryd( 4f)     0.00003       3.89193
    87    C    4  f(C2)  Ryd( 4f)     0.00005       3.83655
    88    C    4  f(S2)  Ryd( 4f)     0.00005       3.91290
    89    C    4  f(C3)  Ryd( 4f)     0.00007       3.93650
    90    C    4  f(S3)  Ryd( 4f)     0.00005       3.96582

    91    H    5  S      Val( 1S)     0.81505      -0.01349
    92    H    5  S      Ryd( 2S)     0.00189       0.61627
    93    H    5  S      Ryd( 3S)     0.00017       2.33426
    94    H    5  px     Ryd( 2p)     0.00026       2.56974
    95    H    5  px     Ryd( 3p)     0.00007       3.85065
    96    H    5  py     Ryd( 2p)     0.00013       3.49617
    97    H    5  py     Ryd( 3p)     0.00020       3.92536
    98    H    5  pz     Ryd( 2p)     0.00019       2.28925
    99    H    5  pz     Ryd( 3p)     0.00002       3.65177
   100    H    5  dxy    Ryd( 3d)     0.00004       4.26453
   101    H    5  dxz    Ryd( 3d)     0.00003       3.69551
   102    H    5  dyz    Ryd( 3d)     0.00004       4.08043
   103    H    5  dx2y2  Ryd( 3d)     0.00004       4.35897
   104    H    5  dz2    Ryd( 3d)     0.00001       3.92208

   105    H    6  S      Val( 1S)     0.81753      -0.01678
   106    H    6  S      Ryd( 2S)     0.00142       0.56106
   107    H    6  S      Ryd( 3S)     0.00017       2.25487
   108    H    6  px     Ryd( 2p)     0.00022       2.52088
   109    H    6  px     Ryd( 3p)     0.00005       3.56601
   110    H    6  py     Ryd( 2p)     0.00020       2.50618
   111    H    6  py     Ryd( 3p)     0.00004       3.52200
   112    H    6  pz     Ryd( 2p)     0.00012       3.70812
   113    H    6  pz     Ryd( 3p)     0.00019       3.79224
   114    H    6  dxy    Ryd( 3d)     0.00002       3.67525
   115    H    6  dxz    Ryd( 3d)     0.00003       4.17348
   116    H    6  dyz    Ryd( 3d)     0.00003       4.14054
   117    H    6  dx2y2  Ryd( 3d)     0.00002       3.70418
   118    H    6  dz2    Ryd( 3d)     0.00002       4.58470

   119    O    7  S      Cor( 1S)     1.99973     -19.02559
   120    O    7  S      Val( 2S)     1.57532      -0.89291
   121    O    7  S      Ryd( 3S)     0.00071       1.50253
   122    O    7  S      Ryd( 4S)     0.00012       4.47008
   123    O    7  S      Ryd( 5S)     0.00000      43.52513
   124    O    7  px     Val( 2p)     1.44443      -0.30507
   125    O    7  px     Ryd( 3p)     0.00174       1.01844
   126    O    7  px     Ryd( 4p)     0.00022       4.03572
   127    O    7  py     Val( 2p)     1.64901      -0.32879
   128    O    7  py     Ryd( 3p)     0.00231       0.73468
   129    O    7  py     Ryd( 4p)     0.00024       3.57239
   130    O    7  pz     Val( 2p)     1.75608      -0.33501
   131    O    7  pz     Ryd( 3p)     0.00299       0.71790
   132    O    7  pz     Ryd( 4p)     0.00019       3.40788
   133    O    7  dxy    Ryd( 3d)     0.00252       1.98637
   134    O    7  dxy    Ryd( 4d)     0.00008       6.62583
   135    O    7  dxz    Ryd( 3d)     0.00330       1.94107
   136    O    7  dxz    Ryd( 4d)     0.00006       6.59344
   137    O    7  dyz    Ryd( 3d)     0.00286       1.86359
   138    O    7  dyz    Ryd( 4d)     0.00004       6.52392
   139    O    7  dx2y2  Ryd( 3d)     0.00230       1.96817
   140    O    7  dx2y2  Ryd( 4d)     0.00008       6.58841
   141    O    7  dz2    Ryd( 3d)     0.00232       1.83711
   142    O    7  dz2    Ryd( 4d)     0.00005       6.51310
   143    O    7  f(0)   Ryd( 4f)     0.00007       5.47210
   144    O    7  f(C1)  Ryd( 4f)     0.00004       5.63293
   145    O    7  f(S1)  Ryd( 4f)     0.00003       5.42069
   146    O    7  f(C2)  Ryd( 4f)     0.00006       5.65636
   147    O    7  f(S2)  Ryd( 4f)     0.00011       5.65063
   148    O    7  f(C3)  Ryd( 4f)     0.00014       5.74821
   149    O    7  f(S3)  Ryd( 4f)     0.00007       5.75013

   150    O    8  S      Cor( 1S)     1.99971     -19.02536
   151    O    8  S      Val( 2S)     1.57695      -0.89618
   152    O    8  S      Ryd( 3S)     0.00078       1.44532
   153    O    8  S      Ryd( 4S)     0.00011       4.56353
   154    O    8  S      Ryd( 5S)     0.00000      43.57373
   155    O    8  px     Val( 2p)     1.35708      -0.30247
   156    O    8  px     Ryd( 3p)     0.00142       1.11632
   157    O    8  px     Ryd( 4p)     0.00029       4.15330
   158    O    8  py     Val( 2p)     1.75518      -0.33796
   159    O    8  py     Ryd( 3p)     0.00332       0.73171
   160    O    8  py     Ryd( 4p)     0.00023       3.36123
   161    O    8  pz     Val( 2p)     1.74050      -0.33621
   162    O    8  pz     Ryd( 3p)     0.00302       0.74786
   163    O    8  pz     Ryd( 4p)     0.00020       3.43305
   164    O    8  dxy    Ryd( 3d)     0.00294       1.96362
   165    O    8  dxy    Ryd( 4d)     0.00007       6.61296
   166    O    8  dxz    Ryd( 3d)     0.00318       2.00263
   167    O    8  dxz    Ryd( 4d)     0.00007       6.61783
   168    O    8  dyz    Ryd( 3d)     0.00295       1.82516
   169    O    8  dyz    Ryd( 4d)     0.00004       6.51454
   170    O    8  dx2y2  Ryd( 3d)     0.00178       1.99424
   171    O    8  dx2y2  Ryd( 4d)     0.00008       6.60052
   172    O    8  dz2    Ryd( 3d)     0.00221       1.85041
   173    O    8  dz2    Ryd( 4d)     0.00005       6.52178
   174    O    8  f(0)   Ryd( 4f)     0.00006       5.48163
   175    O    8  f(C1)  Ryd( 4f)     0.00005       5.71622
   176    O    8  f(S1)  Ryd( 4f)     0.00003       5.35087
   177    O    8  f(C2)  Ryd( 4f)     0.00010       5.59043
   178    O    8  f(S2)  Ryd( 4f)     0.00006       5.70596
   179    O    8  f(C3)  Ryd( 4f)     0.00012       5.71333
   180    O    8  f(S3)  Ryd( 4f)     0.00011       5.77008

   181    C    9  S      Cor( 1S)     1.99873     -10.14393
   182    C    9  S      Val( 2S)     0.86495      -0.18558
   183    C    9  S      Ryd( 3S)     0.00188       1.37661
   184    C    9  S      Ryd( 4S)     0.00017       1.65763
   185    C    9  S      Ryd( 5S)     0.00001      21.80073
   186    C    9  px     Val( 2p)     0.94265      -0.07728
   187    C    9  px     Ryd( 3p)     0.00299       1.19345
   188    C    9  px     Ryd( 4p)     0.00028       2.08781
   189    C    9  py     Val( 2p)     0.87239      -0.06817
   190    C    9  py     Ryd( 3p)     0.00485       1.09416
[...]
   20      25      31    -0.0032996      -0.0286595
   20      25      33    -0.0658284      -0.0429613
   20      25      34    -0.0034940      -0.0133829
   20      25      36    -0.0033285      -0.0132838
   20      25      57     0.0122526       0.0423436
   20      26      26    -0.0025897      -0.1110096
   20      26      28     0.0067573       0.0229683
   20      27      24    -0.0024089      -0.1210805
   20      27      31     0.0070291       0.0273941
   20      28      24     0.0024170       0.0625160
   20      28      34    -0.0034940      -0.0035409
   20      29      26     0.0025174       0.0588818
   20      29      36    -0.0033285      -0.0052544
   20      30      27     0.0026835       0.0533276
   20      30      29     0.0025971       0.0607886
   21      22      24     0.0041893       0.1515300
   21      22      25     0.0702168       0.1134610
   21      22      26     0.0038094       0.2182740
   21      22      28    -0.0034532      -0.0594807
   21      22      30    -0.0389449      -0.0740069
   21      22      31    -0.0037485      -0.0557723
   21      22      33    -0.0508093      -0.0864828
   21      22      37    -0.0032419      -0.0822418
   21      22      56    -0.0024100      -0.3625972
   21      22      57     0.0178422       0.0630218
   21      23      24     0.0044754       0.2565438
   21      23      25     0.1560470       0.4159278
   21      23      27     0.9768665       0.8052563
   21      23      28     0.0056281       0.1672233
   21      23      30     0.0389449       0.3328356
   21      23      32     0.0040921       0.3075197
   21      23      33     0.0624193       0.4391670
   21      23      34     0.0058474       0.1844174
   21      23      37    -0.0034685      -0.4250376
   21      24      25    -0.0658788      -0.0432894
   21      24      26     0.0038094       0.1477672
   21      24      30    -0.0389449      -0.0407249
   21      24      31    -0.0037485      -0.0499709
   21      24      32     0.0040249       0.2176013
   21      24      33     0.0624193       0.0795886
   21      24      34    -0.0032197      -0.0572488
   21      24      37    -0.0034685      -0.0529685
   21      25      25    -0.0522502      -0.0695288
   21      25      27     0.0039428       0.2251983
   21      25      28    -0.0030652      -0.0609426
   21      25      30    -0.0389449      -0.0863671
   21      25      31    -0.0032996      -0.0620861
   21      25      32     0.0040921       0.2142978
   21      25      33     0.0624193       0.1215409
   21      25      34     0.0058474       0.3181703
   21      25      37    -0.0034685      -0.0662621
   21      25      57    -0.0122526      -0.0539152
   21      26      26    -0.0025897      -0.4818346
   21      26      28     0.7672060       0.8143429
   21      26      32    -0.0026813      -0.5093450
   21      27      24    -0.0024089      -0.0080850
   21      27      31     0.0037485       0.0006271
   21      28      24    -0.0024170      -0.1206238
   21      28      34     0.0058474       0.0435445
   21      29      26     0.0025174       0.0478248
   21      29      32     0.0027522       0.0681892
   21      30      27     0.0026835       0.0702368
   21      30      37    -0.0034685      -0.0014846
   22      23      24     0.0041893       0.1201473
   22      23      25     0.0702168       0.0725492
   22      23      28    -0.0034532      -0.0508621
   22      23      30    -0.0659374      -0.0412354
   22      23      33    -0.0508093      -0.0378420
   22      23      35     0.0041238       0.2254335
   22      23      36    -0.0030592      -0.0560356
   22      23      37    -0.0032419      -0.0454460
   22      24      25    -0.0658788      -0.3735317
   22      24      26     0.0039548       0.2750726
   22      24      29     0.9810574       0.8090663
   22      24      30     0.7728734       0.4056755
   22      24      31     0.0061759       0.1242297
   22      24      33    -0.0508093      -0.3535867
   22      24      35     0.0043084       0.3080647
   22      24      36     0.0060163       0.1911162
   22      24      37    -0.0032419      -0.4110137
   22      25      25    -0.0522502      -0.0793213
   22      25      28    -0.0030652      -0.0673140
   22      25      29     0.0038888       0.2151904
   22      25      30     0.0667763       0.1148310
   22      25      31    -0.0032996      -0.0639667
   22      25      33    -0.0508093      -0.0690949
   22      25      35     0.0043084       0.2073893
   22      25      36     0.0057161       0.3094325
   22      25      37    -0.0032419      -0.0611555
   22      25      57    -0.0122526      -0.0589192
   22      26      26     0.0025897       0.0023798
   22      26      28     0.0034532       0.0031795
   22      27      24    -0.0024089      -0.4538061
   22      27      31     0.7643762       0.8108537
   22      27      35    -0.0028585      -0.5251666
   22      28      24     0.0024170       0.0461287
   22      28      35     0.0028692       0.0708592
   22      29      26    -0.0025174      -0.1161143
   22      29      36     0.0060163       0.0467968
   22      30      29     0.0025971       0.0672229
   22      30      37    -0.0032419      -0.0014311
   23      24      25    -0.0658788      -0.0886453
   23      24      30    -0.0659374      -0.0791942
   23      24      32     0.0040249       0.2329857
   23      24      33     0.1479824       0.1150987
   23      24      34    -0.0032197      -0.0734069
   23      24      35     0.0041238       0.2342602
   23      24      36    -0.0030592      -0.0736143
   23      24      37     0.0058303       0.2829770
   23      25      25    -0.0522502      -0.3543880
   23      25      27     0.0039428       0.3214251
   23      25      28    -0.0030652      -0.3902082
   23      25      30    -0.0659374      -0.3732755
   23      25      32     0.9893197       0.8072973
   23      25      33     0.7654449       0.4078438
   23      25      34     0.0059712       0.1615653
   23      25      35     0.0041238       0.3364957
   23      25      36    -0.0030592      -0.4043828
   23      25      37     0.0062516       0.1465358
   23      26      28     0.0056281       0.0557868
   23      26      32    -0.0026813      -0.1162494
   23      27      24     0.0024089       0.0041960
   23      27      35     0.0028585       0.0200168
   23      28      24    -0.0024170      -0.5420455
   23      28      34     0.7742119       0.8103636
   23      28      35    -0.0028692      -0.5766713
   23      29      32     0.0027522       0.0686021
   23      29      36    -0.0030592      -0.0042052
   23      30      27    -0.0026835      -0.1169147
   23      30      37     0.0062516       0.0204832
   24      25      25     0.0522502       0.3284631
   24      25      29     0.0038888       0.3178462
   24      25      30     0.0667763       0.4298707
   24      25      31    -0.0032996      -0.4125530
   24      25      32     0.0040249       0.3292316
   24      25      33     0.1479824       0.4191885
   24      25      34    -0.0032197      -0.4130629
   24      25      35     0.9900673       0.8063869
   24      25      36     0.0057161       0.1636447
   24      25      37     0.0058303       0.1379180
   24      26      26     0.0025897       0.0119405
   24      26      32     0.0026813       0.0230560
   24      27      31     0.0061759       0.0198018
   24      27      35    -0.0028585      -0.1151762
   24      28      34    -0.0032197      -0.0063524
   24      28      35     0.0028692       0.0699700
   24      29      26    -0.0025174      -0.5642233
   24      29      32    -0.0027522      -0.5741141
   24      29      36     0.7737690       0.8110750
   24      30      29    -0.0025971      -0.1162503
   24      30      37     0.0058303       0.0119815
   25      26      28     0.0030652       0.0021104
   25      26      32     0.0026813       0.0124117
   25      27      31     0.0032996       0.0006580
   25      27      35     0.0028585       0.0080035
   25      28      34     0.0059712       0.0224592
   25      28      35    -0.0028692      -0.1125789
   25      29      32    -0.0027522      -0.1118668
   25      29      36     0.0057161       0.0248268
   25      30      27    -0.0026835      -0.5841616
   25      30      29    -0.0025971      -0.5832662
   25      30      37     0.7731348       0.8109797
   26      29      26    -0.0025174      -0.0009034
   26      29      32    -0.0026813      -0.0005263
   27      28      24    -0.0024089      -0.0016472
   27      28      35    -0.0028585      -0.0007589


 Atom-Atom Net Linear NLMO/NPA Bond Orders:                                    

     Atom    1       2       3       4       5       6       7       8       9
     ---- ------  ------  ------  ------  ------  ------  ------  ------  ------
   1.  C  0.0000  0.7746  0.7816  0.9825 -0.0035 -0.0033  0.6952 -0.0110  0.0171
   2.  H  0.7746  0.0000 -0.0040 -0.0037  0.0002  0.0004 -0.0114  0.0027  0.0065
   3.  H  0.7816 -0.0040  0.0000 -0.0086 -0.0016  0.0079 -0.0149  0.0025 -0.0096
   4.  C  0.9825 -0.0037 -0.0086  0.0000  0.7791  0.7815 -0.0093  0.6863 -0.0090
   5.  H -0.0035  0.0002 -0.0016  0.7791  0.0000 -0.0095 -0.0037 -0.0164  0.0033
   6.  H -0.0033  0.0004  0.0079  0.7815 -0.0095  0.0000  0.0012 -0.0166  0.0024
   7.  O  0.6952 -0.0114 -0.0149 -0.0093 -0.0037  0.0012  0.0000  0.0048  0.7455
   8.  O -0.0110  0.0027  0.0025  0.6863 -0.0164 -0.0166  0.0048  0.0000  0.0011
   9.  C  0.0171  0.0065 -0.0096 -0.0090  0.0033  0.0024  0.7455  0.0011  0.0000
  10.  C -0.0038  0.0002  0.0048  0.0151  0.0000 -0.0001 -0.0243 -0.0024  1.2353
  11.  C -0.0252  0.0039  0.0108  0.0083  0.0008 -0.0012 -0.0392 -0.0013  1.5529
  12.  C -0.0085 -0.0016  0.0013  0.0007 -0.0007  0.0001  0.0088 -0.0019  0.0249
  13.  C -0.0003 -0.0011 -0.0004  0.0018 -0.0006 -0.0001  0.0057 -0.0014  0.0324
  14.  C  0.0123  0.0016 -0.0085 -0.0104 -0.0018  0.0000  0.0219  0.0013 -0.0463
  15.  H  0.0018  0.0008  0.0004  0.0001  0.0001 -0.0002 -0.0004 -0.0002  0.0032
  16.  H -0.0022  0.0008  0.0019 -0.0011  0.0002 -0.0007  0.0012  0.0006  0.0024
  17.  H -0.0022  0.0001  0.0002 -0.0002  0.0000  0.0000  0.0012  0.0002  0.0012
  18.  H  0.0014  0.0005  0.0002  0.0001 -0.0002  0.0003 -0.0028  0.0002  0.0009
  19.  H  0.0006  0.0001  0.0000  0.0002 -0.0001  0.0000  0.0057  0.0000  0.0070
  20.  C  0.0026 -0.0005 -0.0005  0.0209 -0.0135 -0.0138 -0.0016  0.7420  0.0014
  21.  C -0.0084  0.0021 -0.0008 -0.0235  0.0123  0.0126 -0.0007 -0.0411  0.0001
  22.  C -0.0013  0.0001  0.0000 -0.0036  0.0086  0.0095 -0.0019 -0.0235  0.0000
  23.  C -0.0018  0.0002  0.0002  0.0003  0.0004  0.0004 -0.0013  0.0060 -0.0003
  24.  C -0.0027  0.0003  0.0004 -0.0084  0.0013  0.0012  0.0002  0.0085 -0.0002
  25.  C  0.0000 -0.0003  0.0006  0.0093 -0.0114 -0.0120 -0.0001  0.0215 -0.0001
  26.  H  0.0020  0.0005 -0.0003 -0.0018  0.0016  0.0013 -0.0011  0.0007  0.0003
  27.  H  0.0010  0.0002 -0.0002  0.0011  0.0001  0.0001 -0.0006 -0.0003  0.0002
  28.  H  0.0002  0.0000  0.0001  0.0014  0.0000  0.0002  0.0003 -0.0029 -0.0001
  29.  H  0.0000 -0.0001 -0.0001 -0.0018  0.0001  0.0001  0.0002  0.0008 -0.0001
  30.  H -0.0003  0.0000  0.0001  0.0000 -0.0003 -0.0001  0.0000  0.0057  0.0000

     Atom   10      11      12      13      14      15      16      17      18
     ---- ------  ------  ------  ------  ------  ------  ------  ------  ------
   1.  C -0.0038 -0.0252 -0.0085 -0.0003  0.0123  0.0018 -0.0022 -0.0022  0.0014
   2.  H  0.0002  0.0039 -0.0016 -0.0011  0.0016  0.0008  0.0008  0.0001  0.0005
   3.  H  0.0048  0.0108  0.0013 -0.0004 -0.0085  0.0004  0.0019  0.0002  0.0002
   4.  C  0.0151  0.0083  0.0007  0.0018 -0.0104  0.0001 -0.0011 -0.0002  0.0001
   5.  H  0.0000  0.0008 -0.0007 -0.0006 -0.0018  0.0001  0.0002  0.0000 -0.0002
   6.  H -0.0001 -0.0012  0.0001 -0.0001  0.0000 -0.0002 -0.0007  0.0000  0.0003
   7.  O -0.0243 -0.0392  0.0088  0.0057  0.0219 -0.0004  0.0012  0.0012 -0.0028
   8.  O -0.0024 -0.0013 -0.0019 -0.0014  0.0013 -0.0002  0.0006  0.0002  0.0002
   9.  C  1.2353  1.5529  0.0249  0.0324 -0.0463  0.0032  0.0024  0.0012  0.0009
  10.  C  0.0000 -0.0064  1.6517 -0.0483 -0.0460  0.7570  0.0088  0.0013  0.0073
  11.  C -0.0064  0.0000 -0.0444  1.2482 -0.0392 -0.0042  0.7613  0.0069  0.0026
  12.  C  1.6517 -0.0444  0.0000  0.0245  1.2690  0.0028  0.0061  0.7670  0.0011
  13.  C -0.0483  1.2482  0.0245  0.0000  1.6464  0.0070  0.0023  0.0015  0.7671
  14.  C -0.0460 -0.0392  1.2690  1.6464  0.0000  0.0089  0.0083  0.0010  0.0020
  15.  H  0.7570 -0.0042  0.0028  0.0070  0.0089  0.0000  0.0008 -0.0019 -0.0057
  16.  H  0.0088  0.7613  0.0061  0.0023  0.0083  0.0008  0.0000 -0.0056 -0.0027
  17.  H  0.0013  0.0069  0.7670  0.0015  0.0010 -0.0019 -0.0056  0.0000 -0.0027
  18.  H  0.0073  0.0026  0.0011  0.7671  0.0020 -0.0057 -0.0027 -0.0027  0.0000
  19.  H  0.0011  0.0010  0.0013  0.0016  0.7663 -0.0009 -0.0011 -0.0034 -0.0032
  20.  C  0.0003  0.0017  0.0005  0.0001  0.0003 -0.0001 -0.0002 -0.0001  0.0001
  21.  C  0.0002  0.0000 -0.0002  0.0005 -0.0002  0.0000  0.0003  0.0000  0.0000
  22.  C -0.0004 -0.0003 -0.0001 -0.0002 -0.0001 -0.0001 -0.0001  0.0000  0.0000
  23.  C -0.0004 -0.0002  0.0000 -0.0003 -0.0001  0.0001  0.0001  0.0000 -0.0001
  24.  C  0.0002 -0.0006  0.0002 -0.0004 -0.0001  0.0000  0.0001  0.0000  0.0000
  25.  C -0.0002  0.0001  0.0000  0.0000 -0.0001  0.0000 -0.0001  0.0000  0.0000
  26.  H  0.0003  0.0002  0.0001  0.0000  0.0002  0.0000  0.0001  0.0000  0.0000
  27.  H  0.0001  0.0001  0.0001  0.0001  0.0001  0.0000  0.0001  0.0000  0.0000
  28.  H -0.0001  0.0000  0.0000  0.0000 -0.0001  0.0000 -0.0001  0.0000  0.0000
  29.  H  0.0000  0.0001  0.0000  0.0000  0.0000  0.0000  0.0000  0.0000  0.0000
  30.  H  0.0000  0.0000  0.0000  0.0000  0.0000  0.0000  0.0000  0.0000  0.0000

     Atom   19      20      21      22      23      24      25      26      27
     ---- ------  ------  ------  ------  ------  ------  ------  ------  ------
   1.  C  0.0006  0.0026 -0.0084 -0.0013 -0.0018 -0.0027  0.0000  0.0020  0.0010
   2.  H  0.0001 -0.0005  0.0021  0.0001  0.0002  0.0003 -0.0003  0.0005  0.0002
   3.  H  0.0000 -0.0005 -0.0008  0.0000  0.0002  0.0004  0.0006 -0.0003 -0.0002
   4.  C  0.0002  0.0209 -0.0235 -0.0036  0.0003 -0.0084  0.0093 -0.0018  0.0011
   5.  H -0.0001 -0.0135  0.0123  0.0086  0.0004  0.0013 -0.0114  0.0016  0.0001
   6.  H  0.0000 -0.0138  0.0126  0.0095  0.0004  0.0012 -0.0120  0.0013  0.0001
   7.  O  0.0057 -0.0016 -0.0007 -0.0019 -0.0013  0.0002 -0.0001 -0.0011 -0.0006
   8.  O  0.0000  0.7420 -0.0411 -0.0235  0.0060  0.0085  0.0215  0.0007 -0.0003
   9.  C  0.0070  0.0014  0.0001  0.0000 -0.0003 -0.0002 -0.0001  0.0003  0.0002
  10.  C  0.0011  0.0003  0.0002 -0.0004 -0.0004  0.0002 -0.0002  0.0003  0.0001
  11.  C  0.0010  0.0017  0.0000 -0.0003 -0.0002 -0.0006  0.0001  0.0002  0.0001
  12.  C  0.0013  0.0005 -0.0002 -0.0001  0.0000  0.0002  0.0000  0.0001  0.0001
  13.  C  0.0016  0.0001  0.0005 -0.0002 -0.0003 -0.0004  0.0000  0.0000  0.0001
  14.  C  0.7663  0.0003 -0.0002 -0.0001 -0.0001 -0.0001 -0.0001  0.0002  0.0001
  15.  H -0.0009 -0.0001  0.0000 -0.0001  0.0001  0.0000  0.0000  0.0000  0.0000
  16.  H -0.0011 -0.0002  0.0003 -0.0001  0.0001  0.0001 -0.0001  0.0001  0.0001
  17.  H -0.0034 -0.0001  0.0000  0.0000  0.0000  0.0000  0.0000  0.0000  0.0000
  18.  H -0.0032  0.0001  0.0000  0.0000 -0.0001  0.0000  0.0000  0.0000  0.0000
  19.  H  0.0000  0.0000 -0.0001  0.0000  0.0000  0.0000  0.0000  0.0000  0.0000
  20.  C  0.0000  0.0000  1.5541  1.2328  0.0328  0.0231 -0.0455  0.0025  0.0031
  21.  C -0.0001  1.5541  0.0000 -0.0074  1.2475 -0.0453 -0.0377  0.7599  0.0033
  22.  C  0.0000  1.2328 -0.0074  0.0000 -0.0484  1.6531 -0.0457  0.0084  0.7578
  23.  C  0.0000  0.0328  1.2475 -0.0484  0.0000  0.0227  1.6494  0.0022  0.0069
  24.  C  0.0000  0.0231 -0.0453  1.6531  0.0227  0.0000  1.2670  0.0061  0.0028
  25.  C  0.0000 -0.0455 -0.0377 -0.0457  1.6494  1.2670  0.0000  0.0084  0.0088
  26.  H  0.0000  0.0025  0.7599  0.0084  0.0022  0.0061  0.0084  0.0000  0.0008
  27.  H  0.0000  0.0031  0.0033  0.7578  0.0069  0.0028  0.0088  0.0008  0.0000
  28.  H  0.0000  0.0010  0.0024  0.0073  0.7674  0.0011  0.0021 -0.0027 -0.0058
  29.  H  0.0000  0.0012  0.0069  0.0016  0.0014  0.7671  0.0010 -0.0057 -0.0018
  30.  H  0.0000  0.0071  0.0010  0.0011  0.0016  0.0013  0.7665 -0.0011 -0.0009

     Atom   28      29      30
     ---- ------  ------  ------
   1.  C  0.0002  0.0000 -0.0003
   2.  H  0.0000 -0.0001  0.0000
   3.  H  0.0001 -0.0001  0.0001
   4.  C  0.0014 -0.0018  0.0000
   5.  H  0.0000  0.0001 -0.0003
   6.  H  0.0002  0.0001 -0.0001
   7.  O  0.0003  0.0002  0.0000
   8.  O -0.0029  0.0008  0.0057
   9.  C -0.0001 -0.0001  0.0000
  10.  C -0.0001  0.0000  0.0000
  11.  C  0.0000  0.0001  0.0000
  12.  C  0.0000  0.0000  0.0000
  13.  C  0.0000  0.0000  0.0000
  14.  C -0.0001  0.0000  0.0000
  15.  H  0.0000  0.0000  0.0000
  16.  H -0.0001  0.0000  0.0000
  17.  H  0.0000  0.0000  0.0000
  18.  H  0.0000  0.0000  0.0000
  19.  H  0.0000  0.0000  0.0000
  20.  C  0.0010  0.0012  0.0071
  21.  C  0.0024  0.0069  0.0010
  22.  C  0.0073  0.0016  0.0011
  23.  C  0.7674  0.0014  0.0016
  24.  C  0.0011  0.7671  0.0013
  25.  C  0.0021  0.0010  0.7665
  26.  H -0.0027 -0.0057 -0.0011
  27.  H -0.0058 -0.0018 -0.0009
  28.  H  0.0000 -0.0027 -0.0032
  29.  H -0.0027  0.0000 -0.0034
  30.  H -0.0032 -0.0034  0.0000


 Linear NLMO/NPA Bond Orders, Totals by Atom:                                  

     Atom    1
     ---- ------
   1.  C  3.1985
   2.  H  0.7731
   3.  H  0.7635
   4.  C  3.2074
   5.  H  0.7447
   6.  H  0.7615
   7.  O  1.3789
   8.  O  1.3661
   9.  C  3.5727
  10.  C  3.5515
  11.  C  3.4366
  12.  C  3.7029
  13.  C  3.6862
  14.  C  3.5867
  15.  H  0.7693
  16.  H  0.7813
  17.  H  0.7644
  18.  H  0.7664
  19.  H  0.7762
  20.  C  3.5517
  21.  C  3.4380
  22.  C  3.5473
  23.  C  3.6866
  24.  C  3.6991
  25.  C  3.5814
  26.  H  0.7832
  27.  H  0.7772
  28.  H  0.7657
  29.  H  0.7648
  30.  H  0.7752
 Leave Link  607 at Fri May 17 10:29:24 2024, MaxMem=  6291456000 cpu:       725.1
 Internal input file was deleted!
 Error termination via Lnk1e at Fri May 17 10:29:25 2024.
May-2024\0\\#P PB
 E1PBE/GEN pop=nboread\\c2h\\0,1\C,0,1.098254,-1.515651,0.051492\H,0,1.
 008967,-2.59605,-0.068931\H,0,1.374482,-1.31839,1.091891\C,0,-0.223281
 ,-0.853042,-0.280373\H,0,-0.122626,0.238398,-0.262125\H,0,-0.542443,-1
 .149231,-1.286696\O,0,2.107601,-1.108494,-0.8416\O,0,-1.143916,-1.2878
 68,0.69024\C,0,2.718961,0.088392,-0.647585\C,0,3.680906,0.430481,-1.59
 5293\C,0,2.455454,0.952738,0.409848\C,0,4.371626,1.621685,-1.483367\C,
 0,3.159477,2.146608,0.508936\C,0,4.116551,2.490585,-0.42914\H,0,3.8709
 16,-0.258085,-2.409801\H,0,1.710116,0.715943,1.157365\H,0,5.1185,1.874
 3,-2.227396\H,0,2.946089,2.813542,1.336563\H,0,4.658164,3.424532,-0.34
 3528\C,0,-2.419339,-0.835806,0.60915\C,0,-2.875883,0.035812,-0.372814\
 C,0,-3.293566,-1.29664,1.590879\C,0,-4.205896,0.439248,-0.361831\C,0,-
 4.612439,-0.886243,1.587413\C,0,-5.07938,-0.014331,0.610305\H,0,-2.211
 971,0.404426,-1.143174\H,0,-2.915008,-1.975755,2.345344\H,0,-4.554811,
 1.119424,-1.130534\H,0,-5.284431,-1.250852,2.355972\H,0,-6.114092,0.30
 5691,0.610205\\Version=EM64L-G09RevD.01\State=1-A\HF=-691.794684\RMSD=
 6.904e-09\Dipole=-0.1005665,0.1666954,-0.0090479\Quadrupole=-0.2266353
 ,-0.4590771,0.6857124,0.9917883,-1.3845736,-1.2649809\PG=C01 [X(C14H14
 O2)]\\@


 ALMOST ANYTHING IS EASIER TO GET INTO THAN OUT OF.

                         -- AGNES ALLEN'S LAW FROM
                PAUL DICKSON'S "THE OFFICIAL RULES"
 Job cpu time:       0 days  2 hours 16 minutes 42.8 seconds.
 File lengths (MBytes):  RWF=    259 Int=      0 D2E=      0 Chk=     18 Scr=      1
 Normal termination of Gaussian 09 at Fri May 17 10:29:24 2024.
