 Entering Gaussian System, Link 0=/home/madghost/g09/g09
 Input=job60.gjf
 Output=job60.log
 Initial command:
 /home/madghost/g09/l1.exe "/scr/natalya/job60/Gau-712215.inp" -scrdir="/scr/natalya/job60/"
 Entering Link 1 = /home/madghost/g09/l1.exe PID=    712217.
  
 Copyright (c) 1988,1990,1992,1993,1995,1998,2003,2009,2013,
            Gaussian, Inc.  All Rights Reserved.
  
 This is part of the Gaussian(R) 09 program.  It is based on
 the Gaussian(R) 03 system (copyright 2003, Gaussian, Inc.),
 the Gaussian(R) 98 system (copyright 1998, Gaussian, Inc.),
 the Gaussian(R) 94 system (copyright 1995, Gaussian, Inc.),
 the Gaussian 92(TM) system (copyright 1992, Gaussian, Inc.),
 the Gaussian 90(TM) system (copyright 1990, Gaussian, Inc.),
 the Gaussian 88(TM) system (copyright 1988, Gaussian, Inc.),
 the Gaussian 86(TM) system (copyright 1986, Carnegie Mellon
 University), and the Gaussian 82(TM) system (copyright 1983,
 Carnegie Mellon University). Gaussian is a federally registered
 trademark of Gaussian, Inc.
  
 This software contains proprietary and confidential information,
 including trade secrets, belonging to Gaussian, Inc.
  
 This software is provided under written license and may be
 used, copied, transmitted, or stored only in accord with that
 written license.
  
 The following legend is applicable only to US Government
 contracts under FAR:
  
                    RESTRICTED RIGHTS LEGEND
  
 Use, reproduction and disclosure by the US Government is
 subject to restrictions as set forth in subparagraphs (a)
 and (c) of the Commercial Computer Software - Restricted
 Rights clause in FAR 52.227-19.
  
 Gaussian, Inc.
 340 Quinnipiac St., Bldg. 40, Wallingford CT 06492
  
  
 ---------------------------------------------------------------
 Warning -- This program may not be used in any manner that
 competes with the business of Gaussian, Inc. or will provide
 assistance to any competitor of Gaussian, Inc.  The licensee
 of this program is prohibited from giving any competitor of
 Gaussian, Inc. access to this program.  By using this program,
 the user acknowledges that Gaussian, Inc. is engaged in the
 business of creating and licensing software in the field of
 computational chemistry and represents and warrants to the
 licensee that it is not a competitor of Gaussian, Inc. and that
 it will not use this program in any manner prohibited above.
 ---------------------------------------------------------------
  

 Cite this work as:
 Gaussian 09, Revision D.01,
 M. J. Frisch, G. W. Trucks, H. B. Schlegel, G. E. Scuseria, 
 M. A. Robb, J. R. Cheeseman, G. Scalmani, V. Barone, B. Mennucci, 
 G. A. Petersson, H. Nakatsuji, M. Caricato, X. Li, H. P. Hratchian, 
 A. F. Izmaylov, J. Bloino, G. Zheng, J. L. Sonnenberg, M. Hada, 
 M. Ehara, K. Toyota, R. Fukuda, J. Hasegawa, M. Ishida, T. Nakajima, 
 Y. Honda, O. Kitao, H. Nakai, T. Vreven, J. A. Montgomery, Jr., 
 J. E. Peralta, F. Ogliaro, M. Bearpark, J. J. Heyd, E. Brothers, 
 K. N. Kudin, V. N. Staroverov, T. Keith, R. Kobayashi, J. Normand, 
 K. Raghavachari, A. Rendell, J. C. Burant, S. S. Iyengar, J. Tomasi, 
 M. Cossi, N. Rega, J. M. Millam, M. Klene, J. E. Knox, J. B. Cross, 
 V. Bakken, C. Adamo, J. Jaramillo, R. Gomperts, R. E. Stratmann, 
 O. Yazyev, A. J. Austin, R. Cammi, C. Pomelli, J. W. Ochterski, 
 R. L. Martin, K. Morokuma, V. G. Zakrzewski, G. A. Voth, 
 P. Salvador, J. J. Dannenberg, S. Dapprich, A. D. Daniels, 
 O. Farkas, J. B. Foresman, J. V. Ortiz, J. Cioslowski, 
 and D. J. Fox, Gaussian, Inc., Wallingford CT, 2013.
 
 ******************************************
 Gaussian 09:  EM64L-G09RevD.01 24-Apr-2013
                17-May-2024 
 ******************************************
 %chk=job60.chk
 %nproc=24
 Will use up to   24 processors via shared memory.
 %mem=48000mb
 --------------------------
 #P PBE1PBE/GEN pop=nboread
 --------------------------
 1/38=1/1;
 2/12=2,17=6,18=5,40=1/2;
 3/5=7,11=2,16=1,25=1,30=1,74=-13/1,2,3;
 4//1;
 5/5=2,38=5/2;
 6/7=2,8=2,9=2,10=2,28=1,40=2/1,7;
 99/5=1,9=1/99;
 Leave Link    1 at Fri May 17 10:23:22 2024, MaxMem=  6291456000 cpu:         1.2
 (Enter /home/madghost/g09/l101.exe)
 ---
 H12
 ---
 Symbolic Z-matrix:
 Charge =  0 Multiplicity = 1
 6                    -0.6395   -0.27211  -0.29324 
 1                    -0.82256  -1.28487   0.08215 
 1                    -0.55906  -0.31915  -1.38495 
 6                     0.63976   0.27168   0.29354 
 1                     0.8222    1.28489  -0.08093 
 1                     0.55996   0.31759   1.38535 
 8                    -1.66483   0.60548   0.10095 
 8                     1.66528  -0.60509  -0.10205 
 6                    -2.92887   0.3297   -0.30232 
 6                    -3.91203   1.22274   0.11818 
 6                    -3.27466  -0.76408  -1.08796 
 6                    -5.22898   1.01988  -0.24574 
 6                    -4.60451  -0.95344  -1.44571 
 6                    -5.58579  -0.07079  -1.03124 
 1                    -3.61806   2.06727   0.72877 
 1                    -2.52542  -1.46671  -1.42466 
 1                    -5.98583   1.72015   0.08672 
 1                    -4.86737  -1.80778  -2.05817 
 1                    -6.61847  -0.22686  -1.31566 
 6                     2.92921  -0.32996   0.30199 
 6                     3.91247  -1.22239  -0.11959 
 6                     3.27482   0.76268   1.0893 
 6                     5.22932  -1.0201    0.24499 
 6                     4.60458   0.95146   1.44772 
 6                     5.58595   0.06938   1.03223 
 1                     3.61862  -2.06598  -0.73152 
 1                     2.52552   1.46488   1.42672 
 1                     5.98625  -1.71988  -0.08831 
 1                     4.86731   1.8049    2.06149 
 1                     6.61855   0.22499   1.31716 
 
 NAtoms=     30 NQM=       30 NQMF=       0 NMMI=      0 NMMIF=      0
                NMic=       0 NMicF=      0.
                    Isotopes and Nuclear Properties:
 (Nuclear quadrupole moments (NQMom) in fm**2, nuclear magnetic moments (NMagM)
  in nuclear magnetons)

  Atom         1           2           3           4           5           6           7           8           9          10
 IAtWgt=          12           1           1          12           1           1          16          16          12          12
 AtmWgt=  12.0000000   1.0078250   1.0078250  12.0000000   1.0078250   1.0078250  15.9949146  15.9949146  12.0000000  12.0000000
 NucSpn=           0           1           1           0           1           1           0           0           0           0
 AtZEff=   0.0000000   0.0000000   0.0000000   0.0000000   0.0000000   0.0000000   0.0000000   0.0000000   0.0000000   0.0000000
 NQMom=    0.0000000   0.0000000   0.0000000   0.0000000   0.0000000   0.0000000   0.0000000   0.0000000   0.0000000   0.0000000
 NMagM=    0.0000000   2.7928460   2.7928460   0.0000000   2.7928460   2.7928460   0.0000000   0.0000000   0.0000000   0.0000000
 AtZNuc=   6.0000000   1.0000000   1.0000000   6.0000000   1.0000000   1.0000000   8.0000000   8.0000000   6.0000000   6.0000000

  Atom        11          12          13          14          15          16          17          18          19          20
 IAtWgt=          12          12          12          12           1           1           1           1           1          12
 AtmWgt=  12.0000000  12.0000000  12.0000000  12.0000000   1.0078250   1.0078250   1.0078250   1.0078250   1.0078250  12.0000000
 NucSpn=           0           0           0           0           1           1           1           1           1           0
 AtZEff=   0.0000000   0.0000000   0.0000000   0.0000000   0.0000000   0.0000000   0.0000000   0.0000000   0.0000000   0.0000000
 NQMom=    0.0000000   0.0000000   0.0000000   0.0000000   0.0000000   0.0000000   0.0000000   0.0000000   0.0000000   0.0000000
 NMagM=    0.0000000   0.0000000   0.0000000   0.0000000   2.7928460   2.7928460   2.7928460   2.7928460   2.7928460   0.0000000
 AtZNuc=   6.0000000   6.0000000   6.0000000   6.0000000   1.0000000   1.0000000   1.0000000   1.0000000   1.0000000   6.0000000

  Atom        21          22          23          24          25          26          27          28          29          30
 IAtWgt=          12          12          12          12          12           1           1           1           1           1
 AtmWgt=  12.0000000  12.0000000  12.0000000  12.0000000  12.0000000   1.0078250   1.0078250   1.0078250   1.0078250   1.0078250
 NucSpn=           0           0           0           0           0           1           1           1           1           1
 AtZEff=   0.0000000   0.0000000   0.0000000   0.0000000   0.0000000   0.0000000   0.0000000   0.0000000   0.0000000   0.0000000
 NQMom=    0.0000000   0.0000000   0.0000000   0.0000000   0.0000000   0.0000000   0.0000000   0.0000000   0.0000000   0.0000000
 NMagM=    0.0000000   0.0000000   0.0000000   0.0000000   0.0000000   2.7928460   2.7928460   2.7928460   2.7928460   2.7928460
 AtZNuc=   6.0000000   6.0000000   6.0000000   6.0000000   6.0000000   1.0000000   1.0000000   1.0000000   1.0000000   1.0000000
 Leave Link  101 at Fri May 17 10:23:22 2024, MaxMem=  6291456000 cpu:         2.1
 (Enter /home/madghost/g09/l202.exe)
                          Input orientation:                          
 ---------------------------------------------------------------------
 Center     Atomic      Atomic             Coordinates (Angstroms)
 Number     Number       Type             X           Y           Z
 ---------------------------------------------------------------------
      1          6           0       -0.639498   -0.272113   -0.293238
      2          1           0       -0.822559   -1.284869    0.082145
      3          1           0       -0.559064   -0.319152   -1.384952
      4          6           0        0.639760    0.271681    0.293543
      5          1           0        0.822196    1.284892   -0.080929
      6          1           0        0.559959    0.317595    1.385346
      7          8           0       -1.664828    0.605476    0.100955
      8          8           0        1.665277   -0.605094   -0.102048
      9          6           0       -2.928867    0.329704   -0.302319
     10          6           0       -3.912029    1.222744    0.118177
     11          6           0       -3.274657   -0.764080   -1.087964
     12          6           0       -5.228977    1.019877   -0.245738
     13          6           0       -4.604510   -0.953444   -1.445714
     14          6           0       -5.585795   -0.070794   -1.031244
     15          1           0       -3.618060    2.067266    0.728766
     16          1           0       -2.525424   -1.466710   -1.424663
     17          1           0       -5.985826    1.720146    0.086716
     18          1           0       -4.867366   -1.807785   -2.058167
     19          1           0       -6.618470   -0.226864   -1.315656
     20          6           0        2.929212   -0.329959    0.301985
     21          6           0        3.912466   -1.222392   -0.119587
     22          6           0        3.274825    0.762680    1.089301
     23          6           0        5.229321   -1.020098    0.244986
     24          6           0        4.604582    0.951464    1.447717
     25          6           0        5.585947    0.069385    1.032226
     26          1           0        3.618619   -2.065984   -0.731523
     27          1           0        2.525518    1.464882    1.426720
     28          1           0        5.986248   -1.719879   -0.088309
     29          1           0        4.867309    1.804898    2.061492
     30          1           0        6.618547    0.224991    1.317165
 ---------------------------------------------------------------------
                    Distance matrix (angstroms):
                    1          2          3          4          5
     1  C    0.000000
     2  H    1.095490   0.000000
     3  H    1.095683   1.776066   0.000000
     4  C    1.508816   2.146139   2.145602   0.000000
     5  H    2.146133   3.055402   2.486224   1.095494   0.000000
     6  H    2.145716   2.485473   3.054867   1.095678   1.776062
     7  O    1.406006   2.069583   2.070162   2.336586   2.584565
     8  O    2.336540   2.585604   2.583660   1.406027   2.069608
     9  C    2.367166   2.681640   2.684972   3.618496   3.877095
    10  C    3.621232   3.979227   3.984874   4.653392   4.738818
    11  C    2.796012   2.766435   2.767781   4.278320   4.690054
    12  C    4.768104   4.983561   4.989880   5.940766   6.059215
    13  C    4.184941   4.092352   4.095321   5.659356   6.026767
    14  C    5.005100   5.040042   5.045276   6.374157   6.618408
    15  H    3.922884   4.412454   4.418174   4.641398   4.580785
    16  H    2.502779   2.281071   2.277068   3.999078   4.536903
    17  H    5.718101   5.974065   5.981161   6.785220   6.823980
    18  H    4.831990   4.605957   4.607680   6.339019   6.770911
    19  H    6.065928   6.055229   6.060505   7.451172   7.692429
    20  C    3.618470   3.877624   3.874782   2.367199   2.682141
    21  C    4.653339   4.739733   4.734086   3.621262   3.979666
    22  C    4.278334   4.689923   4.689456   2.796047   2.767225
    23  C    5.940724   6.059858   6.054207   4.768136   4.984170
    24  C    5.659368   6.026594   6.025091   4.184978   4.093212
    25  C    6.374139   6.618581   6.614746   5.005132   5.040823
    26  H    4.641296   4.582168   4.575088   3.922887   4.412667
    27  H    3.999091   4.536367   4.539044   2.502779   2.281821
    28  H    6.785171   6.824819   6.817949   5.718135   5.974625
    29  H    6.339058   6.770456   6.770162   4.832036   4.606877
    30  H    7.451156   7.692530   7.688669   6.065961   6.056050
                    6          7          8          9         10
     6  H    0.000000
     7  O    2.584998   0.000000
     8  O    2.070127   3.549126   0.000000
     9  C    3.875599   1.355165   4.692560   0.000000
    10  C    4.735366   2.330500   5.873316   1.393178   0.000000
    11  C    4.689516   2.425028   5.039867   1.390386   2.410081
    12  C    6.055198   3.604869   7.084626   2.402093   1.381283
    13  C    6.025129   3.669352   6.421605   2.400334   2.767866
    14  C    6.615213   4.136809   7.329865   2.784061   2.407468
    15  H    4.576930   2.519145   5.978747   2.134770   1.082799
    16  H    4.538665   2.713317   4.478132   2.156277   3.396498
    17  H    6.819156   4.462478   7.998859   3.380780   2.132845
    18  H    6.769851   4.554326   6.924471   3.377816   3.851396
    19  H    7.689063   5.219017   8.380714   3.866496   3.388519
    20  C    2.684466   4.692617   1.355165   5.925996   7.017639
    21  C    3.984431   5.873326   2.330499   7.017566   8.201095
    22  C    2.766992   5.040012   2.425029   6.372587   7.266747
    23  C    4.989267   7.084669   3.604868   8.287191   9.413326
    24  C    4.094467   6.421759   3.669354   7.758999   8.624033
    25  C    5.044488   7.329966   4.136805   8.622693   9.611310
    26  H    4.417917   5.978674   2.519124   6.985207   8.261259
    27  H    2.276269   4.478307   2.713290   5.833397   6.573654
    28  H    5.980600   7.998880   4.462480   9.150184  10.328484
    29  H    4.606790   6.924676   4.554336   8.279140   9.010669
    30  H    6.059680   8.380826   5.219012   9.684359  10.645474
                   11         12         13         14         15
    11  C    0.000000
    12  C    2.776908   0.000000
    13  C    1.390091   2.392468   0.000000
    14  C    2.413549   1.390648   1.383393   0.000000
    15  H    3.381561   2.154469   3.850473   3.397192   0.000000
    16  H    1.080929   3.857744   2.141608   3.386625   4.280199
    17  H    3.860270   1.083384   3.377049   2.148796   2.477707
    18  H    2.137133   3.378067   1.083554   2.141926   4.933942
    19  H    3.394337   2.151692   2.144963   1.082435   4.294782
    20  C    6.372473   8.287226   7.758875   8.622645   6.985385
    21  C    7.266536   9.413272   8.623795   9.611153   8.261379
    22  C    7.068748   8.611802   8.453124   9.148878   7.024514
    23  C    8.611617  10.666692   9.978334  10.931453   9.383071
    24  C    8.453117   9.978545   9.839106  10.537269   8.329091
    25  C    9.148780  10.931570  10.537162  11.361574   9.423236
    26  H    7.024192   9.382883   8.328726   9.422943   8.460835
    27  H    6.703278   7.945271   8.058317   8.613552   6.212371
    28  H    9.363612  11.546096  10.704865  11.726926  10.356294
    29  H    9.100019  10.386268  10.470163  11.061221   8.593398
    30  H   10.229291  11.976575  11.618056  12.431753  10.417693
                   16         17         18         19         20
    16  H    0.000000
    17  H    4.941124   0.000000
    18  H    2.449970   4.277589   0.000000
    19  H    4.278099   2.481478   2.473256   0.000000
    20  C    5.833229   9.150255   8.278944   9.684297   0.000000
    21  C    6.573382  10.328469   9.010341  10.645294   1.393180
    22  C    6.703215   9.363844   9.099952  10.229384   1.390387
    23  C    7.945015  11.546147  10.385955  11.976434   2.402091
    24  C    8.058233  10.705136  10.470076  11.618158   2.400336
    25  C    8.613375  11.727102  11.061015  12.431738   2.784057
    26  H    6.211992  10.356141   8.592939  10.417369   2.134761
    27  H    6.498971   8.619962   8.803949   9.695109   2.156259
    28  H    8.619658  12.457727  11.031275  12.752035   3.380781
    29  H    8.803931  11.031657  11.170809  12.143159   3.377825
    30  H    9.694931  12.752243  12.142951  13.503871   3.866491
                   21         22         23         24         25
    21  C    0.000000
    22  C    2.410086   0.000000
    23  C    1.381283   2.776909   0.000000
    24  C    2.767872   1.390092   2.392470   0.000000
    25  C    2.407467   2.413546   1.390647   1.383392   0.000000
    26  H    1.082801   3.381559   2.154486   3.850481   3.397203
    27  H    3.396489   1.080925   3.857742   2.141623   3.386631
    28  H    2.132849   3.860270   1.083383   3.377048   2.148791
    29  H    3.851405   2.137143   3.378069   1.083557   2.141924
    30  H    3.388517   3.394335   2.151688   2.144962   1.082435
                   26         27         28         29         30
    26  H    0.000000
    27  H    4.280175   0.000000
    28  H    2.477737   4.941121   0.000000
    29  H    4.933953   2.450007   4.277584   0.000000
    30  H    4.294794   4.278109   2.481467   2.473249   0.000000
 Stoichiometry    C14H14O2
 Framework group  C1[X(C14H14O2)]
 Deg. of freedom    84
 Full point group                 C1      NOp   1
 Largest Abelian subgroup         C1      NOp   1
 Largest concise Abelian subgroup C1      NOp   1
                         Standard orientation:                         
 ---------------------------------------------------------------------
 Center     Atomic      Atomic             Coordinates (Angstroms)
 Number     Number       Type             X           Y           Z
 ---------------------------------------------------------------------
      1          6           0        0.666609    0.353094    0.000197
      2          1           0        0.754837    0.985412    0.890415
      3          1           0        0.750570    0.992451   -0.885632
      4          6           0       -0.666609   -0.353344   -0.000167
      5          1           0       -0.754341   -0.986573   -0.889792
      6          1           0       -0.751249   -0.991774    0.886260
      7          8           0        1.650955   -0.650840   -0.005590
      8          8           0       -1.650900    0.650682    0.003996
      9          6           0        2.950876   -0.267865   -0.002835
     10          6           0        3.890135   -1.296815   -0.001544
     11          6           0        3.372556    1.057034   -0.001536
     12          6           0        5.238953   -0.999120    0.001476
     13          6           0        4.733668    1.339381    0.001059
     14          6           0        5.671615    0.322509    0.002794
     15          1           0        3.537296   -2.320512   -0.003196
     16          1           0        2.658456    1.868491   -0.003838
     17          1           0        5.961133   -1.806694    0.002681
     18          1           0        5.055706    2.373973    0.002012
     19          1           0        6.729244    0.552912    0.004299
     20          6           0       -2.950856    0.267820    0.002230
     21          6           0       -3.890022    1.296855   -0.000294
     22          6           0       -3.372654   -1.057043    0.002960
     23          6           0       -5.238867    0.999274   -0.002444
     24          6           0       -4.733793   -1.339272    0.001246
     25          6           0       -5.671645   -0.322316   -0.001656
     26          1           0       -3.537066    2.320515   -0.000279
     27          1           0       -2.658606   -1.868538    0.006101
     28          1           0       -5.960981    1.806904   -0.004621
     29          1           0       -5.055936   -2.373835    0.001898
     30          1           0       -6.729295   -0.552623   -0.002462
 ---------------------------------------------------------------------
 Rotational constants (GHZ):      2.5459098      0.1593804      0.1502743
 Leave Link  202 at Fri May 17 10:23:22 2024, MaxMem=  6291456000 cpu:         0.1
 (Enter /home/madghost/g09/l301.exe)
 General basis read from cards:  (5D, 7F)
 Centers:       2      3      5      6     15     16     17     18     19     26
 Centers:      27     28     29     30
 S 3 1.00
     Exponent=  3.4061341000D+01 Coefficients=  6.0251978000D-03
     Exponent=  5.1235746000D+00 Coefficients=  4.5021094000D-02
     Exponent=  1.1646626000D+00 Coefficients=  2.0189726000D-01
 S 1 1.00
     Exponent=  3.2723041000D-01 Coefficients=  1.0000000000D+00
 S 1 1.00
     Exponent=  1.0307241000D-01 Coefficients=  1.0000000000D+00
 P 1 1.00
     Exponent=  1.4070000000D+00 Coefficients=  1.0000000000D+00
 P 1 1.00
     Exponent=  3.8800000000D-01 Coefficients=  1.0000000000D+00
 D 1 1.00
     Exponent=  1.0570000000D+00 Coefficients=  1.0000000000D+00
 ****
 Centers:       1      4      9     10     11     12     13     14     20     21
 Centers:      22     23     24     25
 S 6 1.00
     Exponent=  1.3575349682D+04 Coefficients=  2.2245814352D-04
     Exponent=  2.0352333680D+03 Coefficients=  1.7232738252D-03
     Exponent=  4.6322562359D+02 Coefficients=  8.9255715314D-03
     Exponent=  1.3120019598D+02 Coefficients=  3.5727984502D-02
     Exponent=  4.2853015891D+01 Coefficients=  1.1076259931D-01
     Exponent=  1.5584185766D+01 Coefficients=  2.4295627626D-01
 S 2 1.00
     Exponent=  6.2067138508D+00 Coefficients=  4.1440263448D-01
     Exponent=  2.5764896527D+00 Coefficients=  2.3744968655D-01
 S 1 1.00
     Exponent=  5.7696339419D-01 Coefficients=  1.0000000000D+00
 S 1 1.00
     Exponent=  2.2972831358D-01 Coefficients=  1.0000000000D+00
 S 1 1.00
     Exponent=  9.5164440028D-02 Coefficients=  1.0000000000D+00
 P 4 1.00
     Exponent=  3.4697232244D+01 Coefficients=  5.3333657805D-03
     Exponent=  7.9582622826D+00 Coefficients=  3.5864109092D-02
     Exponent=  2.3780826883D+00 Coefficients=  1.4215873329D-01
     Exponent=  8.1433208183D-01 Coefficients=  3.4270471845D-01
 P 1 1.00
     Exponent=  2.8887547253D-01 Coefficients=  4.6445822433D-01
 P 1 1.00
     Exponent=  1.0056823671D-01 Coefficients=  2.4955789874D-01
 D 1 1.00
     Exponent=  1.0970000000D+00 Coefficients=  1.0000000000D+00
 D 1 1.00
     Exponent=  3.1800000000D-01 Coefficients=  1.0000000000D+00
 F 1 1.00
     Exponent=  7.6100000000D-01 Coefficients=  1.0000000000D+00
 ****
 Centers:       7      8
 S 6 1.00
     Exponent=  2.7032382631D+04 Coefficients=  2.1726302465D-04
     Exponent=  4.0523871392D+03 Coefficients=  1.6838662199D-03
     Exponent=  9.2232722710D+02 Coefficients=  8.7395616265D-03
     Exponent=  2.6124070989D+02 Coefficients=  3.5239968808D-02
     Exponent=  8.5354641351D+01 Coefficients=  1.1153519115D-01
     Exponent=  3.1035035245D+01 Coefficients=  2.5588953961D-01
 S 2 1.00
     Exponent=  1.2260860728D+01 Coefficients=  3.9768730901D-01
     Exponent=  4.9987076005D+00 Coefficients=  2.4627849430D-01
 S 1 1.00
     Exponent=  1.1703108158D+00 Coefficients=  1.0000000000D+00
 S 1 1.00
     Exponent=  4.6474740994D-01 Coefficients=  1.0000000000D+00
 S 1 1.00
     Exponent=  1.8504536357D-01 Coefficients=  1.0000000000D+00
 P 4 1.00
     Exponent=  6.3274954801D+01 Coefficients=  6.0685103418D-03
     Exponent=  1.4627049379D+01 Coefficients=  4.1912575824D-02
     Exponent=  4.4501223456D+00 Coefficients=  1.6153841088D-01
     Exponent=  1.5275799647D+00 Coefficients=  3.5706951311D-01
 P 1 1.00
     Exponent=  5.2935117943D-01 Coefficients=  4.4794207502D-01
 P 1 1.00
     Exponent=  1.7478421270D-01 Coefficients=  2.4446069663D-01
 D 1 1.00
     Exponent=  2.3140000000D+00 Coefficients=  1.0000000000D+00
 D 1 1.00
     Exponent=  6.4500000000D-01 Coefficients=  1.0000000000D+00
 F 1 1.00
     Exponent=  1.4280000000D+00 Coefficients=  1.0000000000D+00
 ****
 Ernie: Thresh=  0.10000D-02 Tol=  0.10000D-05 Strict=F.
 There are   786 symmetry adapted cartesian basis functions of A   symmetry.
 There are   692 symmetry adapted basis functions of A   symmetry.
   692 basis functions,  1054 primitive gaussians,   786 cartesian basis functions
    57 alpha electrons       57 beta electrons
       nuclear repulsion energy       962.2180870335 Hartrees.
 IExCor= 1009 DFT=T Ex+Corr=PBE1PBE ExCW=0 ScaHFX=  0.250000
 ScaDFX=  0.750000  0.750000  1.000000  1.000000 ScalE2=  1.000000  1.000000
 IRadAn=      0 IRanWt=     -1 IRanGd=            0 ICorTp=0 IEmpDi=  4
 NAtoms=   30 NActive=   30 NUniq=   30 SFac= 1.00D+00 NAtFMM=   60 NAOKFM=F Big=F
 Integral buffers will be    131072 words long.
 Raffenetti 2 integral format.
 Two-electron integral symmetry is turned on.
 Leave Link  301 at Fri May 17 10:23:22 2024, MaxMem=  6291456000 cpu:         1.9
 (Enter /home/madghost/g09/l302.exe)
 NPDir=0 NMtPBC=     1 NCelOv=     1 NCel=       1 NClECP=     1 NCelD=      1
         NCelK=      1 NCelE2=     1 NClLst=     1 CellRange=     0.0.
 One-electron integrals computed using PRISM.
 NBasis=   692 RedAO= T EigKep=  8.89D-06  NBF=   692
 NBsUse=   692 1.00D-06 EigRej= -1.00D+00 NBFU=   692
 Precomputing XC quadrature grid using
 IXCGrd= 4 IRadAn=           0 IRanWt=          -1 IRanGd=           0 AccXCQ= 0.00D+00.
 Generated NRdTot=       0 NPtTot=           0 NUsed=           0 NTot=          32
 NSgBfM=   753   753   753   753   753 MxSgAt=    30 MxSgA2=    30.
 Leave Link  302 at Fri May 17 10:23:24 2024, MaxMem=  6291456000 cpu:        43.0
 (Enter /home/madghost/g09/l303.exe)
 DipDrv:  MaxL=1.
 Leave Link  303 at Fri May 17 10:23:24 2024, MaxMem=  6291456000 cpu:         3.3
 (Enter /home/madghost/g09/l401.exe)
 ExpMin= 9.52D-02 ExpMax= 2.70D+04 ExpMxC= 9.22D+02 IAcc=2 IRadAn=         4 AccDes= 0.00D+00
 Harris functional with IExCor= 1009 and IRadAn=       4 diagonalized for initial guess.
 HarFok:  IExCor= 1009 AccDes= 0.00D+00 IRadAn=         4 IDoV= 1 UseB2=F ITyADJ=14
 ICtDFT=  3500011 ScaDFX=  1.000000  1.000000  1.000000  1.000000
 FoFCou: FMM=F IPFlag=           0 FMFlag=      100000 FMFlg1=           0
         NFxFlg=           0 DoJE=T BraDBF=F KetDBF=T FulRan=T
         wScrn=  0.000000 ICntrl=     500 IOpCl=  0 I1Cent=   200000004 NGrid=           0
         NMat0=    1 NMatS0=      1 NMatT0=    0 NMatD0=    1 NMtDS0=    0 NMtDT0=    0
 Petite list used in FoFCou.
 Harris En= -692.032257027745    
 JPrj=0 DoOrth=F DoCkMO=F.
 Leave Link  401 at Fri May 17 10:23:28 2024, MaxMem=  6291456000 cpu:        88.8
 (Enter /home/madghost/g09/l502.exe)
 Closed shell SCF:
 Using DIIS extrapolation, IDIIS=  1040.
 Integral symmetry usage will be decided dynamically.
 IVT=     1896530 IEndB=     1896530 NGot=  6291456000 MDV=  6290194693
 LenX=  6290194693 LenY=  6289576111
 Requested convergence on RMS density matrix=1.00D-08 within 128 cycles.
 Requested convergence on MAX density matrix=1.00D-06.
 Requested convergence on             energy=1.00D-06.
 No special actions if energy rises.
 Fock matrices will be formed incrementally for  20 cycles.
 Integral accuracy reduced to 1.0D-05 until final iterations.

 Cycle   1  Pass 0  IDiag  1:
 FoFJK:  IHMeth= 1 ICntrl=       0 DoSepK=F KAlg= 0 I1Cent=   0 FoldK=F
 IRaf= 710000000 NMat=   1 IRICut=       1 DoRegI=T DoRafI=F ISym2E= 0.
 FoFCou: FMM=F IPFlag=           0 FMFlag=      100000 FMFlg1=           0
         NFxFlg=           0 DoJE=F BraDBF=F KetDBF=F FulRan=T
         wScrn=  0.000000 ICntrl=       0 IOpCl=  0 I1Cent=           0 NGrid=           0
         NMat0=    1 NMatS0=      1 NMatT0=    0 NMatD0=    1 NMtDS0=    0 NMtDT0=    0
 Symmetry not used in FoFCou.
 E= -691.427046485225    
 DIIS: error= 2.86D-02 at cycle   1 NSaved=   1.
 NSaved= 1 IEnMin= 1 EnMin= -691.427046485225     IErMin= 1 ErrMin= 2.86D-02
 ErrMax= 2.86D-02  0.00D+00 EMaxC= 1.00D-01 BMatC= 3.92D-01 BMatP= 3.92D-01
 IDIUse=3 WtCom= 7.14D-01 WtEn= 2.86D-01
 Coeff-Com:  0.100D+01
 Coeff-En:   0.100D+01
 Coeff:      0.100D+01
 Gap=     0.263 Goal=   None    Shift=    0.000
 GapD=    0.263 DampG=1.000 DampE=0.500 DampFc=0.5000 IDamp=-1.
 Damping current iteration by 5.00D-01
 RMSDP=4.54D-03 MaxDP=2.66D-01              OVMax= 2.04D-01

 Cycle   2  Pass 0  IDiag  1:
 RMSU=  2.27D-03    CP:  1.00D+00
 E= -691.595628679347     Delta-E=       -0.168582194121 Rises=F Damp=T
 DIIS: error= 6.46D-03 at cycle   2 NSaved=   2.
 NSaved= 2 IEnMin= 2 EnMin= -691.595628679347     IErMin= 2 ErrMin= 6.46D-03
 ErrMax= 6.46D-03  0.00D+00 EMaxC= 1.00D-01 BMatC= 2.86D-02 BMatP= 3.92D-01
 IDIUse=3 WtCom= 9.35D-01 WtEn= 6.46D-02
 Coeff-Com: -0.808D-02 0.101D+01
 Coeff-En:   0.495D-01 0.950D+00
 Coeff:     -0.436D-02 0.100D+01
 Gap=     0.299 Goal=   None    Shift=    0.000
 RMSDP=1.09D-03 MaxDP=4.92D-02 DE=-1.69D-01 OVMax= 1.46D-01

 Cycle   3  Pass 0  IDiag  1:
 RMSU=  6.88D-04    CP:  1.01D+00  1.37D+00
 E= -691.777590286604     Delta-E=       -0.181961607257 Rises=F Damp=F
 DIIS: error= 7.80D-03 at cycle   3 NSaved=   3.
 NSaved= 3 IEnMin= 3 EnMin= -691.777590286604     IErMin= 2 ErrMin= 6.46D-03
 ErrMax= 7.80D-03  0.00D+00 EMaxC= 1.00D-01 BMatC= 1.89D-02 BMatP= 2.86D-02
 IDIUse=3 WtCom= 9.22D-01 WtEn= 7.80D-02
 Coeff-Com: -0.685D-01 0.467D+00 0.601D+00
 Coeff-En:   0.000D+00 0.000D+00 0.100D+01
 Coeff:     -0.632D-01 0.431D+00 0.632D+00
 Gap=     0.235 Goal=   None    Shift=    0.000
 RMSDP=1.23D-03 MaxDP=7.84D-02 DE=-1.82D-01 OVMax= 6.75D-02

 Cycle   4  Pass 0  IDiag  1:
 RMSU=  4.60D-04    CP:  9.91D-01  8.83D-01  6.09D-01
 E= -691.789894833252     Delta-E=       -0.012304546648 Rises=F Damp=F
 DIIS: error= 5.69D-03 at cycle   4 NSaved=   4.
 NSaved= 4 IEnMin= 4 EnMin= -691.789894833252     IErMin= 4 ErrMin= 5.69D-03
 ErrMax= 5.69D-03  0.00D+00 EMaxC= 1.00D-01 BMatC= 6.94D-03 BMatP= 1.89D-02
 IDIUse=3 WtCom= 9.43D-01 WtEn= 5.69D-02
 Coeff-Com: -0.403D-01 0.145D+00 0.406D+00 0.490D+00
 Coeff-En:   0.000D+00 0.000D+00 0.293D+00 0.707D+00
 Coeff:     -0.381D-01 0.137D+00 0.399D+00 0.502D+00
 Gap=     0.228 Goal=   None    Shift=    0.000
 RMSDP=4.71D-04 MaxDP=3.10D-02 DE=-1.23D-02 OVMax= 2.84D-02

 Cycle   5  Pass 0  IDiag  1:
 RMSU=  7.30D-05    CP:  9.95D-01  1.07D+00  7.52D-01  6.35D-01
 E= -691.796968030429     Delta-E=       -0.007073197177 Rises=F Damp=F
 DIIS: error= 7.93D-04 at cycle   5 NSaved=   5.
 NSaved= 5 IEnMin= 5 EnMin= -691.796968030429     IErMin= 5 ErrMin= 7.93D-04
 ErrMax= 7.93D-04  0.00D+00 EMaxC= 1.00D-01 BMatC= 1.90D-04 BMatP= 6.94D-03
 IDIUse=3 WtCom= 9.92D-01 WtEn= 7.93D-03
 Coeff-Com: -0.112D-01 0.266D-01 0.120D+00 0.221D+00 0.643D+00
 Coeff-En:   0.000D+00 0.000D+00 0.000D+00 0.000D+00 0.100D+01
 Coeff:     -0.111D-01 0.263D-01 0.120D+00 0.219D+00 0.646D+00
 Gap=     0.228 Goal=   None    Shift=    0.000
 RMSDP=4.53D-05 MaxDP=2.39D-03 DE=-7.07D-03 OVMax= 3.71D-03

 Cycle   6  Pass 0  IDiag  1:
 RMSU=  2.21D-05    CP:  9.95D-01  1.05D+00  7.43D-01  6.57D-01  1.02D+00
 E= -691.797145595398     Delta-E=       -0.000177564969 Rises=F Damp=F
 DIIS: error= 2.07D-04 at cycle   6 NSaved=   6.
 NSaved= 6 IEnMin= 6 EnMin= -691.797145595398     IErMin= 6 ErrMin= 2.07D-04
 ErrMax= 2.07D-04  0.00D+00 EMaxC= 1.00D-01 BMatC= 1.58D-05 BMatP= 1.90D-04
 IDIUse=3 WtCom= 9.98D-01 WtEn= 2.07D-03
 Coeff-Com: -0.400D-02 0.726D-02 0.449D-01 0.938D-01 0.340D+00 0.518D+00
 Coeff-En:   0.000D+00 0.000D+00 0.000D+00 0.000D+00 0.000D+00 0.100D+01
 Coeff:     -0.399D-02 0.724D-02 0.448D-01 0.936D-01 0.339D+00 0.519D+00
 Gap=     0.228 Goal=   None    Shift=    0.000
 RMSDP=1.59D-05 MaxDP=9.70D-04 DE=-1.78D-04 OVMax= 7.85D-04

 Cycle   7  Pass 0  IDiag  1:
 RMSU=  1.18D-05    CP:  9.95D-01  1.05D+00  7.42D-01  6.63D-01  1.03D+00
                    CP:  1.01D+00
 E= -691.797162603996     Delta-E=       -0.000017008598 Rises=F Damp=F
 DIIS: error= 3.00D-05 at cycle   7 NSaved=   7.
 NSaved= 7 IEnMin= 7 EnMin= -691.797162603996     IErMin= 7 ErrMin= 3.00D-05
 ErrMax= 3.00D-05  0.00D+00 EMaxC= 1.00D-01 BMatC= 7.38D-07 BMatP= 1.58D-05
 IDIUse=1 WtCom= 1.00D+00 WtEn= 0.00D+00
 Coeff-Com: -0.600D-03 0.404D-03 0.736D-02 0.177D-01 0.815D-01 0.218D+00
 Coeff-Com:  0.675D+00
 Coeff:     -0.600D-03 0.404D-03 0.736D-02 0.177D-01 0.815D-01 0.218D+00
 Coeff:      0.675D+00
 Gap=     0.228 Goal=   None    Shift=    0.000
 RMSDP=1.17D-05 MaxDP=5.39D-04 DE=-1.70D-05 OVMax= 2.08D-04

 Cycle   8  Pass 0  IDiag  1:
 RMSU=  7.22D-06    CP:  9.95D-01  1.04D+00  7.39D-01  6.63D-01  1.05D+00
                    CP:  1.14D+00  1.30D+00
 E= -691.797163042459     Delta-E=       -0.000000438463 Rises=F Damp=F
 DIIS: error= 1.57D-05 at cycle   8 NSaved=   8.
 NSaved= 8 IEnMin= 8 EnMin= -691.797163042459     IErMin= 8 ErrMin= 1.57D-05
 ErrMax= 1.57D-05  0.00D+00 EMaxC= 1.00D-01 BMatC= 1.56D-07 BMatP= 7.38D-07
 IDIUse=1 WtCom= 1.00D+00 WtEn= 0.00D+00
 Coeff-Com:  0.124D-03-0.545D-03-0.795D-03-0.800D-03 0.803D-02 0.658D-01
 Coeff-Com:  0.367D+00 0.562D+00
 Coeff:      0.124D-03-0.545D-03-0.795D-03-0.800D-03 0.803D-02 0.658D-01
 Coeff:      0.367D+00 0.562D+00
 Gap=     0.228 Goal=   None    Shift=    0.000
 RMSDP=2.41D-05 MaxDP=1.23D-03 DE=-4.38D-07 OVMax= 9.32D-05

 Cycle   9  Pass 0  IDiag  1:
 RMSU=  5.42D-06    CP:  9.95D-01  1.03D+00  7.32D-01  6.70D-01  1.08D+00
                    CP:  1.25D+00  1.41D+00  1.93D+00
 E= -691.797163117741     Delta-E=       -0.000000075283 Rises=F Damp=F
 DIIS: error= 1.04D-05 at cycle   9 NSaved=   9.
 NSaved= 9 IEnMin= 9 EnMin= -691.797163117741     IErMin= 9 ErrMin= 1.04D-05
 ErrMax= 1.04D-05  0.00D+00 EMaxC= 1.00D-01 BMatC= 1.41D-08 BMatP= 1.56D-07
 IDIUse=1 WtCom= 1.00D+00 WtEn= 0.00D+00
 Coeff-Com:  0.855D-04-0.251D-03-0.760D-03-0.146D-02-0.116D-02 0.153D-01
 Coeff-Com:  0.108D+00 0.254D+00 0.626D+00
 Coeff:      0.855D-04-0.251D-03-0.760D-03-0.146D-02-0.116D-02 0.153D-01
 Coeff:      0.108D+00 0.254D+00 0.626D+00
 Gap=     0.228 Goal=   None    Shift=    0.000
 RMSDP=3.01D-05 MaxDP=1.54D-03 DE=-7.53D-08 OVMax= 2.28D-05

 Cycle  10  Pass 0  IDiag  1:
 RMSU=  3.54D-06    CP:  9.94D-01  1.02D+00  7.24D-01  6.79D-01  1.12D+00
                    CP:  1.40D+00  1.56D+00  2.91D+00  2.46D+00
 E= -691.797162533379     Delta-E=        0.000000584362 Rises=F Damp=F
 DIIS: error= 1.69D-05 at cycle  10 NSaved=  10.
 NSaved=10 IEnMin= 9 EnMin= -691.797163117741     IErMin= 9 ErrMin= 1.04D-05
 ErrMax= 1.69D-05  0.00D+00 EMaxC= 1.00D-01 BMatC= 2.16D-08 BMatP= 1.41D-08
 IDIUse=1 WtCom= 1.00D+00 WtEn= 0.00D+00
 Coeff-Com:  0.120D-03-0.322D-03-0.112D-02-0.224D-02-0.315D-02 0.146D-01
 Coeff-Com:  0.120D+00 0.338D+00 0.116D+01-0.626D+00
 Coeff:      0.120D-03-0.322D-03-0.112D-02-0.224D-02-0.315D-02 0.146D-01
 Coeff:      0.120D+00 0.338D+00 0.116D+01-0.626D+00
 Gap=     0.228 Goal=   None    Shift=    0.000
 RMSDP=3.65D-05 MaxDP=1.89D-03 DE= 5.84D-07 OVMax= 2.59D-05

 Cycle  11  Pass 0  IDiag  1:
 RMSU=  3.28D-06    CP:  9.95D-01  1.04D+00  7.34D-01  6.68D-01  1.08D+00
                    CP:  1.25D+00  1.39D+00  1.82D+00  6.99D-01 -5.87D-01
 E= -691.797162920749     Delta-E=       -0.000000387370 Rises=F Damp=F
 DIIS: error= 9.55D-06 at cycle  11 NSaved=  11.
 NSaved=11 IEnMin= 9 EnMin= -691.797163117741     IErMin=11 ErrMin= 9.55D-06
 ErrMax= 9.55D-06  0.00D+00 EMaxC= 1.00D-01 BMatC= 1.09D-08 BMatP= 1.41D-08
 IDIUse=1 WtCom= 1.00D+00 WtEn= 0.00D+00
 Coeff-Com:  0.799D-04-0.185D-03-0.791D-03-0.175D-02-0.365D-02 0.281D-02
 Coeff-Com:  0.451D-01 0.207D+00 0.101D+01-0.110D+01 0.846D+00
 Coeff:      0.799D-04-0.185D-03-0.791D-03-0.175D-02-0.365D-02 0.281D-02
 Coeff:      0.451D-01 0.207D+00 0.101D+01-0.110D+01 0.846D+00
 Gap=     0.228 Goal=   None    Shift=    0.000
 RMSDP=3.29D-05 MaxDP=1.87D-03 DE=-3.87D-07 OVMax= 2.28D-05

 Cycle  12  Pass 0  IDiag  1:
 RMSU=  2.84D-06    CP:  9.95D-01  1.05D+00  7.42D-01  6.57D-01  1.06D+00
                    CP:  1.16D+00  1.38D+00  1.07D+00 -7.60D-01 -1.81D+00
                    CP:  2.69D+00
 E= -691.797163764632     Delta-E=       -0.000000843884 Rises=F Damp=F
 DIIS: error= 5.27D-06 at cycle  12 NSaved=  12.
 NSaved=12 IEnMin=12 EnMin= -691.797163764632     IErMin=12 ErrMin= 5.27D-06
 ErrMax= 5.27D-06  0.00D+00 EMaxC= 1.00D-01 BMatC= 4.67D-09 BMatP= 1.09D-08
 IDIUse=1 WtCom= 1.00D+00 WtEn= 0.00D+00
 Coeff-Com:  0.647D-04-0.147D-03-0.634D-03-0.142D-02-0.298D-02 0.214D-02
 Coeff-Com:  0.354D-01 0.167D+00 0.823D+00-0.943D+00 0.709D+00 0.212D+00
 Coeff:      0.647D-04-0.147D-03-0.634D-03-0.142D-02-0.298D-02 0.214D-02
 Coeff:      0.354D-01 0.167D+00 0.823D+00-0.943D+00 0.709D+00 0.212D+00
 Gap=     0.228 Goal=   None    Shift=    0.000
 RMSDP=3.51D-06 MaxDP=2.47D-04 DE=-8.44D-07 OVMax= 2.92D-06

 Initial convergence to 1.0D-05 achieved.  Increase integral accuracy.
 Cycle  13  Pass 1  IDiag  1:
 E= -691.796976531300     Delta-E=        0.000187233332 Rises=F Damp=F
 DIIS: error= 5.19D-04 at cycle   1 NSaved=   1.
 NSaved= 1 IEnMin= 1 EnMin= -691.796976531300     IErMin= 1 ErrMin= 5.19D-04
 ErrMax= 5.19D-04  0.00D+00 EMaxC= 1.00D-01 BMatC= 3.27D-05 BMatP= 3.27D-05
 IDIUse=3 WtCom= 9.95D-01 WtEn= 5.19D-03
 Coeff-Com:  0.100D+01
 Coeff-En:   0.100D+01
 Coeff:      0.100D+01
 Gap=     0.228 Goal=   None    Shift=    0.000
 RMSDP=3.51D-06 MaxDP=2.47D-04 DE= 1.87D-04 OVMax= 1.51D-03

 Cycle  14  Pass 1  IDiag  1:
 RMSU=  1.46D-03    CP:  8.89D-01
 E= -691.797003387409     Delta-E=       -0.000026856109 Rises=F Damp=F
 DIIS: error= 9.36D-06 at cycle   2 NSaved=   2.
 NSaved= 2 IEnMin= 2 EnMin= -691.797003387409     IErMin= 2 ErrMin= 9.36D-06
 ErrMax= 9.36D-06  0.00D+00 EMaxC= 1.00D-01 BMatC= 9.28D-09 BMatP= 3.27D-05
 IDIUse=1 WtCom= 1.00D+00 WtEn= 0.00D+00
 Coeff-Com: -0.985D-02 0.101D+01
 Coeff:     -0.985D-02 0.101D+01
 Gap=     0.228 Goal=   None    Shift=    0.000
 RMSDP=2.65D-05 MaxDP=1.29D-03 DE=-2.69D-05 OVMax= 4.16D-05

 Cycle  15  Pass 1  IDiag  1:
 RMSU=  7.26D-06    CP:  8.87D-01  1.02D+00
 E= -691.797003396366     Delta-E=       -0.000000008956 Rises=F Damp=F
 DIIS: error= 2.65D-06 at cycle   3 NSaved=   3.
 NSaved= 3 IEnMin= 3 EnMin= -691.797003396366     IErMin= 3 ErrMin= 2.65D-06
 ErrMax= 2.65D-06  0.00D+00 EMaxC= 1.00D-01 BMatC= 4.90D-09 BMatP= 9.28D-09
 IDIUse=1 WtCom= 1.00D+00 WtEn= 0.00D+00
 Coeff-Com: -0.471D-02 0.468D+00 0.537D+00
 Coeff:     -0.471D-02 0.468D+00 0.537D+00
 Gap=     0.228 Goal=   None    Shift=    0.000
 RMSDP=5.72D-07 MaxDP=4.08D-05 DE=-8.96D-09 OVMax= 2.46D-05

 Cycle  16  Pass 1  IDiag  1:
 RMSU=  2.66D-07    CP:  8.87D-01  1.02D+00  1.03D+00
 E= -691.797003399739     Delta-E=       -0.000000003373 Rises=F Damp=F
 DIIS: error= 1.38D-06 at cycle   4 NSaved=   4.
 NSaved= 4 IEnMin= 4 EnMin= -691.797003399739     IErMin= 4 ErrMin= 1.38D-06
 ErrMax= 1.38D-06  0.00D+00 EMaxC= 1.00D-01 BMatC= 1.06D-09 BMatP= 4.90D-09
 IDIUse=1 WtCom= 1.00D+00 WtEn= 0.00D+00
 Coeff-Com: -0.331D-03 0.267D-01 0.316D+00 0.658D+00
 Coeff:     -0.331D-03 0.267D-01 0.316D+00 0.658D+00
 Gap=     0.228 Goal=   None    Shift=    0.000
 RMSDP=2.17D-07 MaxDP=1.11D-05 DE=-3.37D-09 OVMax= 9.91D-06

 Cycle  17  Pass 1  IDiag  1:
 RMSU=  6.47D-08    CP:  8.87D-01  1.02D+00  1.05D+00  1.06D+00
 E= -691.797003400666     Delta-E=       -0.000000000927 Rises=F Damp=F
 DIIS: error= 3.86D-07 at cycle   5 NSaved=   5.
 NSaved= 5 IEnMin= 5 EnMin= -691.797003400666     IErMin= 5 ErrMin= 3.86D-07
 ErrMax= 3.86D-07  0.00D+00 EMaxC= 1.00D-01 BMatC= 5.08D-11 BMatP= 1.06D-09
 IDIUse=1 WtCom= 1.00D+00 WtEn= 0.00D+00
 Coeff-Com:  0.426D-04-0.757D-02 0.136D+00 0.332D+00 0.539D+00
 Coeff:      0.426D-04-0.757D-02 0.136D+00 0.332D+00 0.539D+00
 Gap=     0.228 Goal=   None    Shift=    0.000
 RMSDP=2.41D-08 MaxDP=1.45D-06 DE=-9.27D-10 OVMax= 1.99D-06

 Cycle  18  Pass 1  IDiag  1:
 RMSU=  1.12D-08    CP:  8.87D-01  1.02D+00  1.05D+00  1.08D+00  1.03D+00
 E= -691.797003400688     Delta-E=       -0.000000000023 Rises=F Damp=F
 DIIS: error= 1.23D-07 at cycle   6 NSaved=   6.
 NSaved= 6 IEnMin= 6 EnMin= -691.797003400688     IErMin= 6 ErrMin= 1.23D-07
 ErrMax= 1.23D-07  0.00D+00 EMaxC= 1.00D-01 BMatC= 5.00D-12 BMatP= 5.08D-11
 IDIUse=1 WtCom= 1.00D+00 WtEn= 0.00D+00
 Coeff-Com:  0.517D-04-0.647D-02 0.463D-01 0.124D+00 0.294D+00 0.542D+00
 Coeff:      0.517D-04-0.647D-02 0.463D-01 0.124D+00 0.294D+00 0.542D+00
 Gap=     0.228 Goal=   None    Shift=    0.000
 RMSDP=5.48D-09 MaxDP=3.26D-07 DE=-2.25D-11 OVMax= 6.28D-07

 SCF Done:  E(RPBE1PBE) =  -691.797003401     A.U. after   18 cycles
            NFock= 18  Conv=0.55D-08     -V/T= 2.0047
 KE= 6.885925998151D+02 PE=-3.535557348295D+03 EE= 1.192949658046D+03
 Leave Link  502 at Fri May 17 10:29:48 2024, MaxMem=  6291456000 cpu:      9113.6
 (Enter /home/madghost/g09/l601.exe)
 Copying SCF densities to generalized density rwf, IOpCl= 0 IROHF=0.

 **********************************************************************

            Population analysis using the SCF density.

 **********************************************************************

 Orbital symmetries:
       Occupied  (A) (A) (A) (A) (A) (A) (A) (A) (A) (A) (A) (A)
                 (A) (A) (A) (A) (A) (A) (A) (A) (A) (A) (A) (A)
                 (A) (A) (A) (A) (A) (A) (A) (A) (A) (A) (A) (A)
                 (A) (A) (A) (A) (A) (A) (A) (A) (A) (A) (A) (A)
                 (A) (A) (A) (A) (A) (A) (A) (A) (A)
       Virtual   (A) (A) (A) (A) (A) (A) (A) (A) (A) (A) (A) (A)
                 (A) (A) (A) (A) (A) (A) (A) (A) (A) (A) (A) (A)
                 (A) (A) (A) (A) (A) (A) (A) (A) (A) (A) (A) (A)
                 (A) (A) (A) (A) (A) (A) (A) (A) (A) (A) (A) (A)
                 (A) (A) (A) (A) (A) (A) (A) (A) (A) (A) (A) (A)
                 (A) (A) (A) (A) (A) (A) (A) (A) (A) (A) (A) (A)
                 (A) (A) (A) (A) (A) (A) (A) (A) (A) (A) (A) (A)
                 (A) (A) (A) (A) (A) (A) (A) (A) (A) (A) (A) (A)
                 (A) (A) (A) (A) (A) (A) (A) (A) (A) (A) (A) (A)
                 (A) (A) (A) (A) (A) (A) (A) (A) (A) (A) (A) (A)
                 (A) (A) (A) (A) (A) (A) (A) (A) (A) (A) (A) (A)
                 (A) (A) (A) (A) (A) (A) (A) (A) (A) (A) (A) (A)
                 (A) (A) (A) (A) (A) (A) (A) (A) (A) (A) (A) (A)
                 (A) (A) (A) (A) (A) (A) (A) (A) (A) (A) (A) (A)
                 (A) (A) (A) (A) (A) (A) (A) (A) (A) (A) (A) (A)
                 (A) (A) (A) (A) (A) (A) (A) (A) (A) (A) (A) (A)
                 (A) (A) (A) (A) (A) (A) (A) (A) (A) (A) (A) (A)
                 (A) (A) (A) (A) (A) (A) (A) (A) (A) (A) (A) (A)
                 (A) (A) (A) (A) (A) (A) (A) (A) (A) (A) (A) (A)
                 (A) (A) (A) (A) (A) (A) (A) (A) (A) (A) (A) (A)
                 (A) (A) (A) (A) (A) (A) (A) (A) (A) (A) (A) (A)
                 (A) (A) (A) (A) (A) (A) (A) (A) (A) (A) (A) (A)
                 (A) (A) (A) (A) (A) (A) (A) (A) (A) (A) (A) (A)
                 (A) (A) (A) (A) (A) (A) (A) (A) (A) (A) (A) (A)
                 (A) (A) (A) (A) (A) (A) (A) (A) (A) (A) (A) (A)
                 (A) (A) (A) (A) (A) (A) (A) (A) (A) (A) (A) (A)
                 (A) (A) (A) (A) (A) (A) (A) (A) (A) (A) (A) (A)
                 (A) (A) (A) (A) (A) (A) (A) (A) (A) (A) (A) (A)
                 (A) (A) (A) (A) (A) (A) (A) (A) (A) (A) (A) (A)
                 (A) (A) (A) (A) (A) (A) (A) (A) (A) (A) (A) (A)
                 (A) (A) (A) (A) (A) (A) (A) (A) (A) (A) (A) (A)
                 (A) (A) (A) (A) (A) (A) (A) (A) (A) (A) (A) (A)
                 (A) (A) (A) (A) (A) (A) (A) (A) (A) (A) (A) (A)
                 (A) (A) (A) (A) (A) (A) (A) (A) (A) (A) (A) (A)
                 (A) (A) (A) (A) (A) (A) (A) (A) (A) (A) (A) (A)
                 (A) (A) (A) (A) (A) (A) (A) (A) (A) (A) (A) (A)
                 (A) (A) (A) (A) (A) (A) (A) (A) (A) (A) (A) (A)
                 (A) (A) (A) (A) (A) (A) (A) (A) (A) (A) (A) (A)
                 (A) (A) (A) (A) (A) (A) (A) (A) (A) (A) (A) (A)
                 (A) (A) (A) (A) (A) (A) (A) (A) (A) (A) (A) (A)
                 (A) (A) (A) (A) (A) (A) (A) (A) (A) (A) (A) (A)
                 (A) (A) (A) (A) (A) (A) (A) (A) (A) (A) (A) (A)
                 (A) (A) (A) (A) (A) (A) (A) (A) (A) (A) (A) (A)
                 (A) (A) (A) (A) (A) (A) (A) (A) (A) (A) (A) (A)
                 (A) (A) (A) (A) (A) (A) (A) (A) (A) (A) (A) (A)
                 (A) (A) (A) (A) (A) (A) (A) (A) (A) (A) (A) (A)
                 (A) (A) (A) (A) (A) (A) (A) (A) (A) (A) (A) (A)
                 (A) (A) (A) (A) (A) (A) (A) (A) (A) (A) (A) (A)
                 (A) (A) (A) (A) (A) (A) (A) (A) (A) (A) (A) (A)
                 (A) (A) (A) (A) (A) (A) (A) (A) (A) (A) (A) (A)
                 (A) (A) (A) (A) (A) (A) (A) (A) (A) (A) (A) (A)
                 (A) (A) (A) (A) (A) (A) (A) (A) (A) (A) (A) (A)
                 (A) (A) (A) (A) (A) (A) (A) (A) (A) (A) (A)
 The electronic state is 1-A.
 Alpha  occ. eigenvalues --  -19.24753 -19.24753 -10.28911 -10.28911 -10.28570
 Alpha  occ. eigenvalues --  -10.28543 -10.22996 -10.22996 -10.22908 -10.22908
 Alpha  occ. eigenvalues --  -10.22684 -10.22684 -10.22344 -10.22344 -10.22073
 Alpha  occ. eigenvalues --  -10.22073  -1.11685  -1.10859  -0.88789  -0.88373
 Alpha  occ. eigenvalues --   -0.82039  -0.77849  -0.77572  -0.77085  -0.74215
 Alpha  occ. eigenvalues --   -0.68299  -0.63703  -0.63212  -0.61150  -0.61043
 Alpha  occ. eigenvalues --   -0.57431  -0.55095  -0.53312  -0.51135  -0.50765
 Alpha  occ. eigenvalues --   -0.49506  -0.48502  -0.47080  -0.46259  -0.45653
 Alpha  occ. eigenvalues --   -0.43982  -0.43786  -0.42611  -0.40916  -0.39481
 Alpha  occ. eigenvalues --   -0.38621  -0.37881  -0.37772  -0.37080  -0.34783
 Alpha  occ. eigenvalues --   -0.34541  -0.34370  -0.33725  -0.27148  -0.27113
 Alpha  occ. eigenvalues --   -0.24259  -0.23849
 Alpha virt. eigenvalues --   -0.01050  -0.00930   0.00479   0.00684   0.04775
 Alpha virt. eigenvalues --    0.05527   0.06226   0.07335   0.07967   0.09042
 Alpha virt. eigenvalues --    0.09745   0.09935   0.10094   0.11036   0.12276
 Alpha virt. eigenvalues --    0.12923   0.13298   0.14539   0.14813   0.15417
 Alpha virt. eigenvalues --    0.15564   0.15981   0.16404   0.18474   0.19765
 Alpha virt. eigenvalues --    0.20223   0.21100   0.21329   0.21738   0.21996
 Alpha virt. eigenvalues --    0.22447   0.22943   0.23578   0.23959   0.24213
 Alpha virt. eigenvalues --    0.24732   0.24749   0.25607   0.25614   0.26370
 Alpha virt. eigenvalues --    0.26525   0.27365   0.28687   0.28843   0.30083
 Alpha virt. eigenvalues --    0.30290   0.31948   0.32246   0.32971   0.33006
 Alpha virt. eigenvalues --    0.34618   0.34925   0.35125   0.35583   0.36514
 Alpha virt. eigenvalues --    0.36557   0.37876   0.37879   0.39391   0.39767
 Alpha virt. eigenvalues --    0.40396   0.40728   0.40951   0.41236   0.42174
 Alpha virt. eigenvalues --    0.42181   0.42438   0.42497   0.43377   0.43734
 Alpha virt. eigenvalues --    0.44156   0.44405   0.45146   0.45307   0.46806
 Alpha virt. eigenvalues --    0.46977   0.47102   0.48307   0.48546   0.49177
 Alpha virt. eigenvalues --    0.49625   0.49918   0.50520   0.50849   0.51361
 Alpha virt. eigenvalues --    0.51833   0.52318   0.52483   0.52490   0.55706
 Alpha virt. eigenvalues --    0.57040   0.58627   0.59288   0.60358   0.61517
 Alpha virt. eigenvalues --    0.62489   0.63468   0.65315   0.65409   0.66112
 Alpha virt. eigenvalues --    0.66591   0.66784   0.67444   0.69143   0.69176
 Alpha virt. eigenvalues --    0.69561   0.69741   0.71220   0.71266   0.71745
 Alpha virt. eigenvalues --    0.71766   0.72545   0.72995   0.75007   0.75178
 Alpha virt. eigenvalues --    0.75352   0.76344   0.76760   0.77820   0.78236
 Alpha virt. eigenvalues --    0.80041   0.80453   0.80476   0.81733   0.83073
 Alpha virt. eigenvalues --    0.83104   0.84139   0.84641   0.85144   0.87413
 Alpha virt. eigenvalues --    0.88476   0.88499   0.88759   0.89218   0.91896
 Alpha virt. eigenvalues --    0.94224   0.94880   0.95094   0.95286   0.97023
 Alpha virt. eigenvalues --    0.97187   0.97243   0.97412   0.98381   0.99227
 Alpha virt. eigenvalues --    0.99323   0.99764   1.00819   1.01520   1.02780
 Alpha virt. eigenvalues --    1.03375   1.03793   1.05320   1.06250   1.06872
 Alpha virt. eigenvalues --    1.08613   1.08859   1.10500   1.11471   1.11978
 Alpha virt. eigenvalues --    1.12537   1.13596   1.14508   1.15917   1.15933
 Alpha virt. eigenvalues --    1.17257   1.18048   1.19070   1.20115   1.20140
 Alpha virt. eigenvalues --    1.20895   1.21675   1.22190   1.23072   1.24074
 Alpha virt. eigenvalues --    1.24677   1.25719   1.26527   1.28676   1.28777
 Alpha virt. eigenvalues --    1.30252   1.30713   1.31703   1.31787   1.32771
 Alpha virt. eigenvalues --    1.32912   1.33070   1.33357   1.34884   1.35085
 Alpha virt. eigenvalues --    1.36377   1.36541   1.37505   1.38340   1.38355
 Alpha virt. eigenvalues --    1.39484   1.41621   1.41824   1.43533   1.43645
 Alpha virt. eigenvalues --    1.43941   1.44702   1.46367   1.46970   1.47485
 Alpha virt. eigenvalues --    1.47928   1.48730   1.49856   1.49949   1.50923
 Alpha virt. eigenvalues --    1.51428   1.52428   1.53478   1.53669   1.53708
 Alpha virt. eigenvalues --    1.55381   1.55899   1.59393   1.59911   1.60602
 Alpha virt. eigenvalues --    1.60694   1.61296   1.62135   1.64079   1.64881
 Alpha virt. eigenvalues --    1.66569   1.67703   1.68414   1.68582   1.68750
 Alpha virt. eigenvalues --    1.70502   1.70768   1.71007   1.71468   1.74600
 Alpha virt. eigenvalues --    1.75622   1.77819   1.81314   1.81321   1.83119
 Alpha virt. eigenvalues --    1.84565   1.85660   1.86567   1.87313   1.92870
 Alpha virt. eigenvalues --    1.93430   1.95074   1.95100   1.96277   1.97698
 Alpha virt. eigenvalues --    1.99009   1.99279   1.99542   2.00380   2.00399
 Alpha virt. eigenvalues --    2.01128   2.01454   2.02579   2.04852   2.08513
 Alpha virt. eigenvalues --    2.10383   2.13465   2.14319   2.14629   2.15400
 Alpha virt. eigenvalues --    2.16474   2.19174   2.19418   2.22465   2.23924
 Alpha virt. eigenvalues --    2.25130   2.27384   2.27995   2.29452   2.29802
 Alpha virt. eigenvalues --    2.31630   2.33487   2.34461   2.34981   2.36578
 Alpha virt. eigenvalues --    2.37163   2.38006   2.39146   2.39177   2.41543
 Alpha virt. eigenvalues --    2.45315   2.46125   2.46501   2.48339   2.51550
 Alpha virt. eigenvalues --    2.54086   2.56746   2.56841   2.57683   2.61489
 Alpha virt. eigenvalues --    2.63880   2.64621   2.64666   2.65178   2.66684
 Alpha virt. eigenvalues --    2.68038   2.68872   2.70457   2.70671   2.71449
 Alpha virt. eigenvalues --    2.74237   2.74354   2.74413   2.75565   2.76009
 Alpha virt. eigenvalues --    2.76149   2.78220   2.78514   2.79153   2.79967
 Alpha virt. eigenvalues --    2.81358   2.81526   2.83466   2.83538   2.84796
 Alpha virt. eigenvalues --    2.85233   2.85292   2.86194   2.88288   2.89648
 Alpha virt. eigenvalues --    2.89979   2.90768   2.91102   2.91523   2.92611
 Alpha virt. eigenvalues --    2.92707   2.93170   2.96451   2.96945   2.97728
 Alpha virt. eigenvalues --    2.97802   2.99411   2.99475   3.00168   3.01980
 Alpha virt. eigenvalues --    3.04065   3.04444   3.04842   3.04863   3.05232
 Alpha virt. eigenvalues --    3.05837   3.06345   3.06953   3.06967   3.07384
 Alpha virt. eigenvalues --    3.07858   3.08595   3.09935   3.10790   3.12021
 Alpha virt. eigenvalues --    3.13197   3.13294   3.13756   3.14780   3.14863
 Alpha virt. eigenvalues --    3.16539   3.16783   3.16967   3.17031   3.17277
 Alpha virt. eigenvalues --    3.17807   3.18800   3.19255   3.19892   3.21573
 Alpha virt. eigenvalues --    3.21777   3.22461   3.25997   3.26030   3.26733
 Alpha virt. eigenvalues --    3.26994   3.27288   3.28660   3.30831   3.32130
 Alpha virt. eigenvalues --    3.33084   3.33235   3.33543   3.34131   3.34446
 Alpha virt. eigenvalues --    3.34580   3.35064   3.36162   3.36288   3.36336
 Alpha virt. eigenvalues --    3.36901   3.37668   3.38144   3.40343   3.40853
 Alpha virt. eigenvalues --    3.41883   3.42150   3.42795   3.42817   3.44733
 Alpha virt. eigenvalues --    3.44939   3.46340   3.48194   3.48335   3.49124
 Alpha virt. eigenvalues --    3.49364   3.50809   3.53046   3.53558   3.53608
 Alpha virt. eigenvalues --    3.56369   3.56816   3.57036   3.57350   3.59237
 Alpha virt. eigenvalues --    3.60718   3.61087   3.63776   3.65057   3.65834
 Alpha virt. eigenvalues --    3.66606   3.67708   3.68562   3.69589   3.70206
 Alpha virt. eigenvalues --    3.71168   3.72300   3.73783   3.76773   3.77341
 Alpha virt. eigenvalues --    3.78487   3.78534   3.78635   3.78649   3.78843
 Alpha virt. eigenvalues --    3.79663   3.80421   3.81069   3.81626   3.82312
 Alpha virt. eigenvalues --    3.82718   3.83810   3.83949   3.85037   3.85437
 Alpha virt. eigenvalues --    3.85811   3.86092   3.87526   3.87676   3.88387
 Alpha virt. eigenvalues --    3.89582   3.90972   3.91484   3.93522   3.94176
 Alpha virt. eigenvalues --    3.94904   3.95254   3.96619   3.96749   3.98634
 Alpha virt. eigenvalues --    3.98924   4.03641   4.04745   4.05429   4.05449
 Alpha virt. eigenvalues --    4.07850   4.09813   4.10490   4.10801   4.11825
 Alpha virt. eigenvalues --    4.11974   4.12956   4.15592   4.17157   4.17951
 Alpha virt. eigenvalues --    4.18072   4.18504   4.19175   4.21050   4.21279
 Alpha virt. eigenvalues --    4.21942   4.23575   4.24137   4.25308   4.25451
 Alpha virt. eigenvalues --    4.26515   4.26814   4.27414   4.27444   4.28026
 Alpha virt. eigenvalues --    4.28587   4.29308   4.30409   4.31431   4.32514
 Alpha virt. eigenvalues --    4.32945   4.34559   4.34767   4.37522   4.37874
 Alpha virt. eigenvalues --    4.38309   4.39200   4.41129   4.45108   4.46273
 Alpha virt. eigenvalues --    4.46992   4.51194   4.51680   4.54114   4.54693
 Alpha virt. eigenvalues --    4.56821   4.57004   4.58011   4.60033   4.63115
 Alpha virt. eigenvalues --    4.64208   4.65950   4.66503   4.66637   4.66874
 Alpha virt. eigenvalues --    4.67042   4.69518   4.69576   4.71834   4.72149
 Alpha virt. eigenvalues --    4.75504   4.75738   4.75794   4.76137   4.78289
 Alpha virt. eigenvalues --    4.78296   4.79969   4.81449   4.81700   4.82931
 Alpha virt. eigenvalues --    4.83334   4.84491   4.84994   4.86583   4.87634
 Alpha virt. eigenvalues --    4.87745   4.89883   4.92428   4.98652   4.99309
 Alpha virt. eigenvalues --    5.00659   5.00766   5.01216   5.01881   5.03417
 Alpha virt. eigenvalues --    5.07880   5.10110   5.10952   5.11632   5.12871
 Alpha virt. eigenvalues --    5.17009   5.21377   5.21975   5.22424   5.22640
 Alpha virt. eigenvalues --    5.30712   5.31363   5.32962   5.33742   5.35795
 Alpha virt. eigenvalues --    5.35981   5.36272   5.37419   5.38072   5.38117
 Alpha virt. eigenvalues --    5.40738   5.43025   5.43566   5.45280   5.45749
 Alpha virt. eigenvalues --    5.45861   5.50122   5.54172   5.56002   5.58539
 Alpha virt. eigenvalues --    5.60114   5.62512   5.64705   5.66232   5.67824
 Alpha virt. eigenvalues --    5.70130   5.70154   5.75047   5.75522   5.82264
 Alpha virt. eigenvalues --    5.82494   5.91163   5.96237   5.96904   5.97408
 Alpha virt. eigenvalues --    5.99052   6.02686   6.03991   6.15155   6.16659
 Alpha virt. eigenvalues --    6.18741   6.29017   6.30898   6.45690   6.51054
 Alpha virt. eigenvalues --    6.53924   6.55354   6.75519   6.79792   6.85438
 Alpha virt. eigenvalues --    6.89706   6.94790   6.96369   6.98796   7.00033
 Alpha virt. eigenvalues --    7.36819   7.44353   7.52608   7.55710  22.68054
 Alpha virt. eigenvalues --   22.75066  23.20147  23.21348  23.27904  23.28056
 Alpha virt. eigenvalues --   23.30955  23.31717  23.37924  23.38233  23.46626
 Alpha virt. eigenvalues --   23.62412  24.16117  24.16538  44.58350  44.70709
          Condensed to atoms (all electrons):
               1          2          3          4          5          6
     1  C    4.762235   0.393736   0.393611   0.369531  -0.021585  -0.022103
     2  H    0.393736   0.615600  -0.047065  -0.021651   0.011595  -0.014738
     3  H    0.393611  -0.047065   0.616448  -0.022049  -0.014743   0.011639
     4  C    0.369531  -0.021651  -0.022049   4.762251   0.393675   0.393667
     5  H   -0.021585   0.011595  -0.014743   0.393675   0.615530  -0.047064
     6  H   -0.022103  -0.014738   0.011639   0.393667  -0.047064   0.616508
     7  O    0.259210  -0.041240  -0.041066  -0.044087   0.007235   0.007286
     8  O   -0.044089   0.007214   0.007310   0.259198  -0.041221  -0.041083
     9  C   -0.040502  -0.004651  -0.004827  -0.004850   0.000878   0.000857
    10  C   -0.014005   0.003197   0.003125   0.000221   0.000324   0.000331
    11  C   -0.034021   0.007244   0.007045   0.002327   0.000163   0.000155
    12  C    0.001072  -0.000317  -0.000291  -0.000019  -0.000022  -0.000021
    13  C    0.003040  -0.001819  -0.001761  -0.000550  -0.000030  -0.000031
    14  C   -0.001073   0.000155   0.000142   0.000065   0.000009   0.000009
    15  H   -0.002697   0.000232   0.000229   0.000383   0.000117   0.000118
    16  H    0.001021   0.001547   0.001565   0.000325   0.000047   0.000043
    17  H    0.000047  -0.000001  -0.000001  -0.000003   0.000000   0.000000
    18  H   -0.000132   0.000013   0.000015   0.000008   0.000000   0.000000
    19  H    0.000000   0.000002   0.000001   0.000000   0.000000   0.000000
    20  C   -0.004850   0.000864   0.000871  -0.040494  -0.004678  -0.004795
    21  C    0.000221   0.000321   0.000334  -0.014004   0.003188   0.003134
    22  C    0.002328   0.000163   0.000155  -0.034022   0.007248   0.007037
    23  C   -0.000019  -0.000022  -0.000021   0.001072  -0.000316  -0.000291
    24  C   -0.000550  -0.000030  -0.000031   0.003040  -0.001818  -0.001761
    25  C    0.000065   0.000009   0.000009  -0.001073   0.000155   0.000142
    26  H    0.000383   0.000116   0.000119  -0.002698   0.000231   0.000229
    27  H    0.000325   0.000047   0.000043   0.001020   0.001548   0.001563
    28  H   -0.000003   0.000000   0.000000   0.000047  -0.000001  -0.000001
    29  H    0.000008   0.000000   0.000000  -0.000132   0.000013   0.000015
    30  H    0.000000   0.000000   0.000000   0.000000   0.000002   0.000001
               7          8          9         10         11         12
     1  C    0.259210  -0.044089  -0.040502  -0.014005  -0.034021   0.001072
     2  H   -0.041240   0.007214  -0.004651   0.003197   0.007244  -0.000317
     3  H   -0.041066   0.007310  -0.004827   0.003125   0.007045  -0.000291
     4  C   -0.044087   0.259198  -0.004850   0.000221   0.002327  -0.000019
     5  H    0.007235  -0.041221   0.000878   0.000324   0.000163  -0.000022
     6  H    0.007286  -0.041083   0.000857   0.000331   0.000155  -0.000021
     7  O    7.832383   0.003039   0.357247  -0.049058  -0.069944   0.002563
     8  O    0.003039   7.832391   0.000621   0.000039   0.000004  -0.000001
     9  C    0.357247   0.000621   4.833624   0.412207   0.318494  -0.001730
    10  C   -0.049058   0.000039   0.412207   4.937139   0.075984   0.528564
    11  C   -0.069944   0.000004   0.318494   0.075984   5.123571  -0.083758
    12  C    0.002563  -0.000001  -0.001730   0.528564  -0.083758   4.784523
    13  C    0.009235  -0.000006   0.059609  -0.086749   0.393353  -0.009932
    14  C   -0.000357   0.000001  -0.081267  -0.022291  -0.014478   0.521725
    15  H    0.010959   0.000004  -0.067031   0.427642   0.017689  -0.035447
    16  H   -0.006739   0.000176  -0.041178   0.003388   0.421779   0.001125
    17  H   -0.000180   0.000000   0.011096  -0.034012  -0.002662   0.414188
    18  H   -0.000190   0.000000  -0.001615   0.003802  -0.016048   0.001946
    19  H    0.000016   0.000000  -0.000184   0.005461   0.008261  -0.029428
    20  C    0.000621   0.357240   0.000303   0.000033   0.000009  -0.000001
    21  C    0.000039  -0.049057   0.000033   0.000001  -0.000002   0.000000
    22  C    0.000004  -0.069939   0.000009  -0.000002   0.000003   0.000000
    23  C   -0.000001   0.002562  -0.000001   0.000000   0.000000   0.000000
    24  C   -0.000006   0.009233  -0.000005   0.000000   0.000000   0.000000
    25  C    0.000001  -0.000357   0.000000   0.000000   0.000000   0.000000
    26  H    0.000004   0.010959   0.000006   0.000000  -0.000001   0.000000
    27  H    0.000176  -0.006739   0.000031   0.000003   0.000004   0.000000
    28  H    0.000000  -0.000180   0.000000   0.000000   0.000000   0.000000
    29  H    0.000000  -0.000190   0.000000   0.000000   0.000000   0.000000
    30  H    0.000000   0.000016   0.000000   0.000000   0.000000   0.000000
              13         14         15         16         17         18
     1  C    0.003040  -0.001073  -0.002697   0.001021   0.000047  -0.000132
     2  H   -0.001819   0.000155   0.000232   0.001547  -0.000001   0.000013
     3  H   -0.001761   0.000142   0.000229   0.001565  -0.000001   0.000015
     4  C   -0.000550   0.000065   0.000383   0.000325  -0.000003   0.000008
     5  H   -0.000030   0.000009   0.000117   0.000047   0.000000   0.000000
     6  H   -0.000031   0.000009   0.000118   0.000043   0.000000   0.000000
     7  O    0.009235  -0.000357   0.010959  -0.006739  -0.000180  -0.000190
     8  O   -0.000006   0.000001   0.000004   0.000176   0.000000   0.000000
     9  C    0.059609  -0.081267  -0.067031  -0.041178   0.011096  -0.001615
    10  C   -0.086749  -0.022291   0.427642   0.003388  -0.034012   0.003802
    11  C    0.393353  -0.014478   0.017689   0.421779  -0.002662  -0.016048
    12  C   -0.009932   0.521725  -0.035447   0.001125   0.414188   0.001946
    13  C    4.916954   0.531817  -0.004687  -0.018138   0.008582   0.393899
    14  C    0.531817   4.820643   0.011526   0.004290  -0.035435  -0.019113
    15  H   -0.004687   0.011526   0.546212  -0.000231  -0.007331   0.000123
    16  H   -0.018138   0.004290  -0.000231   0.538007   0.000070  -0.002869
    17  H    0.008582  -0.035435  -0.007331   0.000070   0.537303  -0.000525
    18  H    0.393899  -0.019113   0.000123  -0.002869  -0.000525   0.529976
    19  H   -0.030327   0.409305  -0.000320  -0.000402  -0.004043  -0.003686
    20  C   -0.000005   0.000000   0.000006   0.000031   0.000000   0.000000
    21  C    0.000000   0.000000   0.000000   0.000003   0.000000   0.000000
    22  C    0.000000   0.000000  -0.000001   0.000004   0.000000   0.000000
    23  C    0.000000   0.000000   0.000000   0.000000   0.000000   0.000000
    24  C    0.000000   0.000000   0.000000   0.000000   0.000000   0.000000
    25  C    0.000000   0.000000   0.000000   0.000000   0.000000   0.000000
    26  H    0.000000   0.000000   0.000000   0.000002   0.000000   0.000000
    27  H    0.000000   0.000000   0.000002   0.000001   0.000000   0.000000
    28  H    0.000000   0.000000   0.000000   0.000000   0.000000   0.000000
    29  H    0.000000   0.000000   0.000000   0.000000   0.000000   0.000000
    30  H    0.000000   0.000000   0.000000   0.000000   0.000000   0.000000
              19         20         21         22         23         24
     1  C    0.000000  -0.004850   0.000221   0.002328  -0.000019  -0.000550
     2  H    0.000002   0.000864   0.000321   0.000163  -0.000022  -0.000030
     3  H    0.000001   0.000871   0.000334   0.000155  -0.000021  -0.000031
     4  C    0.000000  -0.040494  -0.014004  -0.034022   0.001072   0.003040
     5  H    0.000000  -0.004678   0.003188   0.007248  -0.000316  -0.001818
     6  H    0.000000  -0.004795   0.003134   0.007037  -0.000291  -0.001761
     7  O    0.000016   0.000621   0.000039   0.000004  -0.000001  -0.000006
     8  O    0.000000   0.357240  -0.049057  -0.069939   0.002562   0.009233
     9  C   -0.000184   0.000303   0.000033   0.000009  -0.000001  -0.000005
    10  C    0.005461   0.000033   0.000001  -0.000002   0.000000   0.000000
    11  C    0.008261   0.000009  -0.000002   0.000003   0.000000   0.000000
    12  C   -0.029428  -0.000001   0.000000   0.000000   0.000000   0.000000
    13  C   -0.030327  -0.000005   0.000000   0.000000   0.000000   0.000000
    14  C    0.409305   0.000000   0.000000   0.000000   0.000000   0.000000
    15  H   -0.000320   0.000006   0.000000  -0.000001   0.000000   0.000000
    16  H   -0.000402   0.000031   0.000003   0.000004   0.000000   0.000000
    17  H   -0.004043   0.000000   0.000000   0.000000   0.000000   0.000000
    18  H   -0.003686   0.000000   0.000000   0.000000   0.000000   0.000000
    19  H    0.531061   0.000000   0.000000   0.000000   0.000000   0.000000
    20  C    0.000000   4.833578   0.412234   0.318542  -0.001745   0.059586
    21  C    0.000000   0.412234   4.937116   0.075962   0.528575  -0.086739
    22  C    0.000000   0.318542   0.075962   5.123516  -0.083745   0.393386
    23  C    0.000000  -0.001745   0.528575  -0.083745   4.784515  -0.009939
    24  C    0.000000   0.059586  -0.086739   0.393386  -0.009939   4.916923
    25  C    0.000000  -0.081255  -0.022300  -0.014491   0.521731   0.531827
    26  H    0.000000  -0.067030   0.427639   0.017688  -0.035444  -0.004686
    27  H    0.000000  -0.041178   0.003388   0.421778   0.001125  -0.018134
    28  H    0.000000   0.011095  -0.034011  -0.002662   0.414188   0.008582
    29  H    0.000000  -0.001615   0.003801  -0.016048   0.001946   0.393899
    30  H    0.000000  -0.000184   0.005461   0.008261  -0.029428  -0.030327
              25         26         27         28         29         30
     1  C    0.000065   0.000383   0.000325  -0.000003   0.000008   0.000000
     2  H    0.000009   0.000116   0.000047   0.000000   0.000000   0.000000
     3  H    0.000009   0.000119   0.000043   0.000000   0.000000   0.000000
     4  C   -0.001073  -0.002698   0.001020   0.000047  -0.000132   0.000000
     5  H    0.000155   0.000231   0.001548  -0.000001   0.000013   0.000002
     6  H    0.000142   0.000229   0.001563  -0.000001   0.000015   0.000001
     7  O    0.000001   0.000004   0.000176   0.000000   0.000000   0.000000
     8  O   -0.000357   0.010959  -0.006739  -0.000180  -0.000190   0.000016
     9  C    0.000000   0.000006   0.000031   0.000000   0.000000   0.000000
    10  C    0.000000   0.000000   0.000003   0.000000   0.000000   0.000000
    11  C    0.000000  -0.000001   0.000004   0.000000   0.000000   0.000000
    12  C    0.000000   0.000000   0.000000   0.000000   0.000000   0.000000
    13  C    0.000000   0.000000   0.000000   0.000000   0.000000   0.000000
    14  C    0.000000   0.000000   0.000000   0.000000   0.000000   0.000000
    15  H    0.000000   0.000000   0.000002   0.000000   0.000000   0.000000
    16  H    0.000000   0.000002   0.000001   0.000000   0.000000   0.000000
    17  H    0.000000   0.000000   0.000000   0.000000   0.000000   0.000000
    18  H    0.000000   0.000000   0.000000   0.000000   0.000000   0.000000
    19  H    0.000000   0.000000   0.000000   0.000000   0.000000   0.000000
    20  C   -0.081255  -0.067030  -0.041178   0.011095  -0.001615  -0.000184
    21  C   -0.022300   0.427639   0.003388  -0.034011   0.003801   0.005461
    22  C   -0.014491   0.017688   0.421778  -0.002662  -0.016048   0.008261
    23  C    0.521731  -0.035444   0.001125   0.414188   0.001946  -0.029428
    24  C    0.531827  -0.004686  -0.018134   0.008582   0.393899  -0.030327
    25  C    4.820636   0.011525   0.004289  -0.035435  -0.019113   0.409306
    26  H    0.011525   0.546212  -0.000231  -0.007330   0.000123  -0.000320
    27  H    0.004289  -0.000231   0.538011   0.000070  -0.002869  -0.000402
    28  H   -0.035435  -0.007330   0.000070   0.537302  -0.000526  -0.004043
    29  H   -0.019113   0.000123  -0.002869  -0.000526   0.529975  -0.003686
    30  H    0.409306  -0.000320  -0.000402  -0.004043  -0.003686   0.531063
 Mulliken charges:
               1
     1  C   -0.001202
     2  H    0.089478
     3  H    0.089194
     4  C   -0.001198
     5  H    0.089520
     6  H    0.089154
     7  O   -0.237147
     8  O   -0.237145
     9  C    0.252827
    10  C   -0.195343
    11  C   -0.155171
    12  C   -0.094737
    13  C   -0.162454
    14  C   -0.125673
    15  H    0.102503
    16  H    0.096134
    17  H    0.112909
    18  H    0.114397
    19  H    0.114283
    20  C    0.252819
    21  C   -0.195337
    22  C   -0.155173
    23  C   -0.094741
    24  C   -0.162448
    25  C   -0.125671
    26  H    0.102504
    27  H    0.096130
    28  H    0.112909
    29  H    0.114397
    30  H    0.114282
 Sum of Mulliken charges =   0.00000
 Mulliken charges with hydrogens summed into heavy atoms:
               1
     1  C    0.177470
     4  C    0.177476
     7  O   -0.237147
     8  O   -0.237145
     9  C    0.252827
    10  C   -0.092840
    11  C   -0.059037
    12  C    0.018172
    13  C   -0.048057
    14  C   -0.011390
    20  C    0.252819
    21  C   -0.092833
    22  C   -0.059043
    23  C    0.018168
    24  C   -0.048051
    25  C   -0.011389
 Electronic spatial extent (au):  <R**2>=           6741.1590
 Charge=              0.0000 electrons
 Dipole moment (field-independent basis, Debye):
    X=              0.0000    Y=             -0.0001    Z=              0.0016  Tot=              0.0016
 Quadrupole moment (field-independent basis, Debye-Ang):
   XX=            -87.9153   YY=            -86.2449   ZZ=            -99.8427
   XY=              1.5623   XZ=              0.0261   YZ=             -0.0222
 Traceless Quadrupole moment (field-independent basis, Debye-Ang):
   XX=              3.4190   YY=              5.0894   ZZ=             -8.5084
   XY=              1.5623   XZ=              0.0261   YZ=             -0.0222
 Octapole moment (field-independent basis, Debye-Ang**2):
  XXX=              0.0022  YYY=              0.0004  ZZZ=             -0.0108  XYY=             -0.0002
  XXY=             -0.0007  XXZ=              0.0140  XZZ=              0.0001  YZZ=             -0.0008
  YYZ=             -0.0010  XYZ=              0.0483
 Hexadecapole moment (field-independent basis, Debye-Ang**3):
 XXXX=          -7918.0168 YYYY=           -605.8148 ZZZZ=           -124.5087 XXXY=            -42.2441
 XXXZ=              1.1862 YYYX=             -7.6508 YYYZ=             -0.0443 ZZZX=             -0.1093
 ZZZY=              0.0350 XXYY=          -1395.5125 XXZZ=          -1639.6279 YYZZ=           -142.5991
 XXYZ=             -0.1798 YYXZ=             -0.0204 ZZXY=             -4.9321
 N-N= 9.622180870335D+02 E-N=-3.535557329489D+03  KE= 6.885925998151D+02
 No NMR shielding tensors so no spin-rotation constants.
 Leave Link  601 at Fri May 17 10:29:49 2024, MaxMem=  6291456000 cpu:        17.5
 (Enter /home/madghost/g09/l607.exe)
 ******************************Gaussian NBO Version 3.1******************************
             N A T U R A L   A T O M I C   O R B I T A L   A N D
          N A T U R A L   B O N D   O R B I T A L   A N A L Y S I S
 ******************************Gaussian NBO Version 3.1******************************

       /RESON  / : Allow strongly delocalized NBO set
       /E2PERT / : Analyze NBO Fock matrix
                   Print threshold set to  0.05
       /PLOT   / : Write information for the orbital plotter
       /ARCHIVE/ : Write the archive file to LFN 47
       /BNDIDX / : Print bond indices based on the NAO density matrix
       /FILE   / : Set to JOB60                                               

 Analyzing the SCF density

 Job title: H12                                                             

 Storage needed:   1440014 in NPA,   1918463 in NBO,   1440952 in NLMO (6291451200 available)


 NATURAL POPULATIONS:  Natural atomic orbital occupancies 
                                                          
   NAO  Atom  No  lang   Type(AO)    Occupancy      Energy
 ----------------------------------------------------------
     1    C    1  S      Cor( 1S)     1.99924     -10.15681
     2    C    1  S      Val( 2S)     1.03916      -0.30942
     3    C    1  S      Ryd( 3S)     0.00369       1.51637
     4    C    1  S      Ryd( 4S)     0.00007       1.70374
     5    C    1  S      Ryd( 5S)     0.00000      21.54706
     6    C    1  px     Val( 2p)     0.87548      -0.10725
     7    C    1  px     Ryd( 3p)     0.00170       1.33742
     8    C    1  px     Ryd( 4p)     0.00012       1.86925
     9    C    1  py     Val( 2p)     0.96611      -0.10978
    10    C    1  py     Ryd( 3p)     0.00260       1.14270
    11    C    1  py     Ryd( 4p)     0.00029       1.27093
    12    C    1  pz     Val( 2p)     1.19518      -0.13060
    13    C    1  pz     Ryd( 4p)     0.00090       1.16441
    14    C    1  pz     Ryd( 3p)     0.00022       1.09449
    15    C    1  dxy    Ryd( 3d)     0.00100       2.10577
    16    C    1  dxy    Ryd( 4d)     0.00030       3.70738
    17    C    1  dxz    Ryd( 3d)     0.00093       1.51030
    18    C    1  dxz    Ryd( 4d)     0.00013       2.82167
    19    C    1  dyz    Ryd( 3d)     0.00251       1.81604
    20    C    1  dyz    Ryd( 4d)     0.00015       3.31221
    21    C    1  dx2y2  Ryd( 3d)     0.00102       1.77398
    22    C    1  dx2y2  Ryd( 4d)     0.00017       3.20664
    23    C    1  dz2    Ryd( 3d)     0.00097       1.95670
    24    C    1  dz2    Ryd( 4d)     0.00014       3.45705
    25    C    1  f(0)   Ryd( 4f)     0.00001       3.84217
    26    C    1  f(C1)  Ryd( 4f)     0.00005       3.78873
    27    C    1  f(S1)  Ryd( 4f)     0.00012       4.09228
    28    C    1  f(C2)  Ryd( 4f)     0.00001       3.78663
    29    C    1  f(S2)  Ryd( 4f)     0.00001       3.96777
    30    C    1  f(C3)  Ryd( 4f)     0.00003       3.98814
    31    C    1  f(S3)  Ryd( 4f)     0.00009       4.09728

    32    H    2  S      Val( 1S)     0.81752      -0.01675
    33    H    2  S      Ryd( 2S)     0.00144       0.56842
    34    H    2  S      Ryd( 3S)     0.00015       2.24694
    35    H    2  px     Ryd( 2p)     0.00024       2.58026
    36    H    2  px     Ryd( 3p)     0.00005       3.52375
    37    H    2  py     Ryd( 2p)     0.00016       2.94828
    38    H    2  py     Ryd( 3p)     0.00008       3.55390
    39    H    2  pz     Ryd( 2p)     0.00012       3.29060
    40    H    2  pz     Ryd( 3p)     0.00014       3.65823
    41    H    2  dxy    Ryd( 3d)     0.00003       3.87391
    42    H    2  dxz    Ryd( 3d)     0.00002       3.92632
    43    H    2  dyz    Ryd( 3d)     0.00002       4.39026
    44    H    2  dx2y2  Ryd( 3d)     0.00001       3.84600
    45    H    2  dz2    Ryd( 3d)     0.00004       4.24945

    46    H    3  S      Val( 1S)     0.81770      -0.01688
    47    H    3  S      Ryd( 2S)     0.00144       0.56924
    48    H    3  S      Ryd( 3S)     0.00015       2.24605
    49    H    3  px     Ryd( 2p)     0.00024       2.57949
    50    H    3  px     Ryd( 3p)     0.00005       3.52335
    51    H    3  py     Ryd( 2p)     0.00016       2.95760
    52    H    3  py     Ryd( 3p)     0.00008       3.55627
    53    H    3  pz     Ryd( 2p)     0.00012       3.28041
    54    H    3  pz     Ryd( 3p)     0.00014       3.65478
    55    H    3  dxy    Ryd( 3d)     0.00003       3.87708
    56    H    3  dxz    Ryd( 3d)     0.00002       3.92153
    57    H    3  dyz    Ryd( 3d)     0.00002       4.39255
    58    H    3  dx2y2  Ryd( 3d)     0.00001       3.85035
    59    H    3  dz2    Ryd( 3d)     0.00004       4.24266

    60    C    4  S      Cor( 1S)     1.99924     -10.15681
    61    C    4  S      Val( 2S)     1.03917      -0.30943
    62    C    4  S      Ryd( 3S)     0.00369       1.51638
    63    C    4  S      Ryd( 4S)     0.00007       1.70377
    64    C    4  S      Ryd( 5S)     0.00000      21.54700
    65    C    4  px     Val( 2p)     0.87550      -0.10725
    66    C    4  px     Ryd( 3p)     0.00170       1.33739
    67    C    4  px     Ryd( 4p)     0.00012       1.86916
    68    C    4  py     Val( 2p)     0.96608      -0.10978
    69    C    4  py     Ryd( 3p)     0.00260       1.14270
    70    C    4  py     Ryd( 4p)     0.00029       1.27089
    71    C    4  pz     Val( 2p)     1.19518      -0.13060
    72    C    4  pz     Ryd( 4p)     0.00090       1.16443
    73    C    4  pz     Ryd( 3p)     0.00022       1.09446
    74    C    4  dxy    Ryd( 3d)     0.00100       2.10574
    75    C    4  dxy    Ryd( 4d)     0.00030       3.70733
    76    C    4  dxz    Ryd( 3d)     0.00093       1.51027
    77    C    4  dxz    Ryd( 4d)     0.00013       2.82167
    78    C    4  dyz    Ryd( 3d)     0.00251       1.81601
    79    C    4  dyz    Ryd( 4d)     0.00015       3.31218
    80    C    4  dx2y2  Ryd( 3d)     0.00102       1.77396
    81    C    4  dx2y2  Ryd( 4d)     0.00017       3.20661
    82    C    4  dz2    Ryd( 3d)     0.00097       1.95671
    83    C    4  dz2    Ryd( 4d)     0.00014       3.45706
    84    C    4  f(0)   Ryd( 4f)     0.00001       3.84217
    85    C    4  f(C1)  Ryd( 4f)     0.00005       3.78870
    86    C    4  f(S1)  Ryd( 4f)     0.00012       4.09230
    87    C    4  f(C2)  Ryd( 4f)     0.00001       3.78658
    88    C    4  f(S2)  Ryd( 4f)     0.00001       3.96781
    89    C    4  f(C3)  Ryd( 4f)     0.00003       3.98809
    90    C    4  f(S3)  Ryd( 4f)     0.00009       4.09728

    91    H    5  S      Val( 1S)     0.81751      -0.01673
    92    H    5  S      Ryd( 2S)     0.00144       0.56848
    93    H    5  S      Ryd( 3S)     0.00015       2.24682
    94    H    5  px     Ryd( 2p)     0.00024       2.58113
    95    H    5  px     Ryd( 3p)     0.00005       3.52263
    96    H    5  py     Ryd( 2p)     0.00016       2.95038
    97    H    5  py     Ryd( 3p)     0.00008       3.55339
    98    H    5  pz     Ryd( 2p)     0.00012       3.29022
    99    H    5  pz     Ryd( 3p)     0.00014       3.65694
   100    H    5  dxy    Ryd( 3d)     0.00003       3.87440
   101    H    5  dxz    Ryd( 3d)     0.00002       3.92575
   102    H    5  dyz    Ryd( 3d)     0.00002       4.39062
   103    H    5  dx2y2  Ryd( 3d)     0.00001       3.84663
   104    H    5  dz2    Ryd( 3d)     0.00004       4.24858

   105    H    6  S      Val( 1S)     0.81772      -0.01690
   106    H    6  S      Ryd( 2S)     0.00144       0.56914
   107    H    6  S      Ryd( 3S)     0.00015       2.24619
   108    H    6  px     Ryd( 2p)     0.00024       2.57847
   109    H    6  px     Ryd( 3p)     0.00005       3.52452
   110    H    6  py     Ryd( 2p)     0.00016       2.95547
   111    H    6  py     Ryd( 3p)     0.00008       3.55685
   112    H    6  pz     Ryd( 2p)     0.00012       3.28067
   113    H    6  pz     Ryd( 3p)     0.00014       3.65617
   114    H    6  dxy    Ryd( 3d)     0.00003       3.87663
   115    H    6  dxz    Ryd( 3d)     0.00002       3.92212
   116    H    6  dyz    Ryd( 3d)     0.00002       4.39217
   117    H    6  dx2y2  Ryd( 3d)     0.00001       3.84971
   118    H    6  dz2    Ryd( 3d)     0.00004       4.24353

   119    O    7  S      Cor( 1S)     1.99971     -19.02499
[...]
   20      25      57     0.0122981       0.0423374
   20      26      25    -0.0024044      -0.1210838
   20      26      29     0.0070194       0.0275067
   20      27      24    -0.0025842      -0.1111360
   20      27      31     0.0067489       0.0224393
   20      28      24     0.0025147       0.0588566
   20      28      33    -0.0033243      -0.0052264
   20      29      25     0.0024192       0.0626958
   20      29      36    -0.0034919      -0.0034116
   20      30      27     0.0025922       0.0608720
   20      30      30     0.0026763       0.0532687
   21      22      24     0.0038066       0.2183520
   21      22      25     0.0041851       0.1512233
   21      22      26     0.0701587       0.1132421
   21      22      28    -0.0388736      -0.0739149
   21      22      29    -0.0037409      -0.0557950
   21      22      31    -0.0034527      -0.0596074
   21      22      35    -0.0507711      -0.0864677
   21      22      37    -0.0032355      -0.0822162
   21      22      56    -0.0024157      -0.3629408
   21      22      57     0.0178891       0.0626426
   21      23      24     0.0039508       0.2750782
   21      23      26    -0.0658267      -0.3735148
   21      23      27     0.9810738       0.8090416
   21      23      28     0.7730341       0.4055873
   21      23      29     0.0061691       0.1238537
   21      23      32     0.0043080       0.3082635
   21      23      33     0.0060153       0.1913759
   21      23      35    -0.0507711      -0.3535079
   21      23      37    -0.0032355      -0.4106541
   21      24      25     0.0041851       0.1197235
   21      24      26     0.0701587       0.0724465
   21      24      28    -0.0658897      -0.0411885
   21      24      31    -0.0034527      -0.0507959
   21      24      32     0.0041200       0.2254956
   21      24      33    -0.0030572      -0.0557459
   21      24      35    -0.0507711      -0.0377986
   21      24      37    -0.0032355      -0.0452993
   21      25      26    -0.0523112      -0.0792167
   21      25      27     0.0038817       0.2150324
   21      25      28     0.0667269       0.1147320
   21      25      29    -0.0032912      -0.0639559
   21      25      31    -0.0030578      -0.0672158
   21      25      32     0.0043080       0.2073631
   21      25      33     0.0057074       0.3095368
   21      25      35    -0.0507711      -0.0690420
   21      25      37    -0.0032355      -0.0610427
   21      25      57    -0.0122981      -0.0588346
   21      26      25    -0.0024044      -0.4531216
   21      26      29     0.7645371       0.8110662
   21      26      32    -0.0028586      -0.5250378
   21      27      24     0.0025842       0.0021425
   21      27      31     0.0034527       0.0030716
   21      28      24    -0.0025147      -0.1161095
   21      28      33     0.0060153       0.0471887
   21      29      25     0.0024192       0.0462572
   21      29      32     0.0028660       0.0709200
   21      30      27     0.0025922       0.0672681
   21      30      37    -0.0032355      -0.0014958
   22      23      24     0.0038066       0.1479217
   22      23      26    -0.0658267      -0.0432035
   22      23      28    -0.0388736      -0.0406829
   22      23      29    -0.0037409      -0.0499724
   22      23      34     0.0040183       0.2177163
   22      23      35     0.0622886       0.0795642
   22      23      36    -0.0032254      -0.0576275
   22      23      37    -0.0034709      -0.0530453
   22      24      25     0.0044775       0.2568774
   22      24      26     0.1560262       0.4156647
   22      24      28     0.0388736       0.3327206
   22      24      30     0.9768912       0.8052369
   22      24      31     0.0056363       0.1665275
   22      24      34     0.0040899       0.3077778
   22      24      35     0.0622886       0.4392405
   22      24      36     0.0058402       0.1847113
   22      24      37    -0.0034709      -0.4249591
   22      25      26    -0.0523112      -0.0694137
   22      25      28    -0.0388736      -0.0863173
   22      25      29    -0.0032912      -0.0625095
   22      25      30     0.0039371       0.2254002
   22      25      31    -0.0030578      -0.0608419
   22      25      34     0.0040899       0.2145523
   22      25      35     0.0622886       0.1215790
   22      25      36     0.0058402       0.3179617
   22      25      37    -0.0034709      -0.0662816
   22      25      57    -0.0122981      -0.0537447
   22      26      25    -0.0024044      -0.0083438
   22      26      29     0.0037409       0.0004516
   22      27      24    -0.0025842      -0.4815991
   22      27      31     0.7676921       0.8146232
   22      27      34    -0.0026828      -0.5086672
   22      28      24     0.0025147       0.0477807
   22      28      34     0.0027434       0.0683908
   22      29      25    -0.0024192      -0.1205593
   22      29      36     0.0058402       0.0438042
   22      30      30     0.0026763       0.0701670
   22      30      37    -0.0034709      -0.0014817
   23      24      26    -0.0658267      -0.0885491
   23      24      28    -0.0658897      -0.0790986
   23      24      32     0.0041200       0.2339255
   23      24      33    -0.0030572      -0.0733510
   23      24      34     0.0040183       0.2326800
   23      24      35     0.1477993       0.1149625
   23      24      36    -0.0032254      -0.0735291
   23      24      37     0.0058222       0.2829402
   23      25      26     0.0523112       0.3282195
   23      25      27     0.0038817       0.3178425
   23      25      28     0.0667269       0.4295998
   23      25      29    -0.0032912      -0.4119882
   23      25      32     0.9900804       0.8063568
   23      25      33     0.0057074       0.1635787
   23      25      34     0.0040183       0.3290432
   23      25      35     0.1477993       0.4189416
   23      25      36    -0.0032254      -0.4138987
   23      25      37     0.0058222       0.1377603
   23      26      29     0.0061691       0.0196150
   23      26      32    -0.0028586      -0.1151922
   23      27      24     0.0025842       0.0117895
   23      27      34     0.0026828       0.0228058
   23      28      24    -0.0025147      -0.5638575
   23      28      33     0.7738743       0.8113558
   23      28      34    -0.0027434      -0.5740432
   23      29      32     0.0028660       0.0700098
   23      29      36    -0.0032254      -0.0061998
   23      30      27    -0.0025922      -0.1161669
   23      30      37     0.0058222       0.0119890
   24      25      26    -0.0523112      -0.3543980
   24      25      28    -0.0658897      -0.3732227
   24      25      30     0.0039371       0.3215911
   24      25      31    -0.0030578      -0.3892442
   24      25      32     0.0041200       0.3363601
   24      25      33    -0.0030572      -0.4039221
   24      25      34     0.9892854       0.8072358
   24      25      35     0.7656756       0.4077674
   24      25      36     0.0059804       0.1617684
   24      25      37     0.0062533       0.1467394
   24      26      25     0.0024044       0.0039814
   24      26      32     0.0028586       0.0199306
   24      27      31     0.0056363       0.0553604
   24      27      34    -0.0026828      -0.1160703
   24      28      33    -0.0030572      -0.0042851
   24      28      34     0.0027434       0.0687461
   24      29      25    -0.0024192      -0.5420812
   24      29      32    -0.0028660      -0.5767171
   24      29      36     0.7744473       0.8105806
   24      30      30    -0.0026763      -0.1169417
   24      30      37     0.0062533       0.0207423
   25      26      29     0.0032912       0.0004284
   25      26      32     0.0028586       0.0079341
   25      27      31     0.0030578       0.0021300
   25      27      34     0.0026828       0.0121556
   25      28      33     0.0057074       0.0249094
   25      28      34    -0.0027434      -0.1117868
   25      29      32    -0.0028660      -0.1126380
   25      29      36     0.0059804       0.0229030
   25      30      27    -0.0025922      -0.5831437
   25      30      30    -0.0026763      -0.5836351
   25      30      37     0.7732813       0.8112234
   26      29      25    -0.0024044      -0.0016705
   26      29      32    -0.0028586      -0.0007637
   27      28      24    -0.0025147      -0.0009185
   27      28      34    -0.0026828      -0.0005394


 Atom-Atom Net Linear NLMO/NPA Bond Orders:                                    

     Atom    1       2       3       4       5       6       7       8       9
     ---- ------  ------  ------  ------  ------  ------  ------  ------  ------
   1.  C  0.0000  0.7819  0.7820  1.0000 -0.0032 -0.0032  0.6887 -0.0109  0.0212
   2.  H  0.7819  0.0000 -0.0100 -0.0032  0.0083 -0.0018 -0.0166  0.0016 -0.0137
   3.  H  0.7820 -0.0100  0.0000 -0.0032 -0.0018  0.0083 -0.0166  0.0016 -0.0141
   4.  C  1.0000 -0.0032 -0.0032  0.0000  0.7819  0.7820 -0.0109  0.6887  0.0021
   5.  H -0.0032  0.0083 -0.0018  0.7819  0.0000 -0.0100  0.0016 -0.0166 -0.0007
   6.  H -0.0032 -0.0018  0.0083  0.7820 -0.0100  0.0000  0.0016 -0.0166 -0.0007
   7.  O  0.6887 -0.0166 -0.0166 -0.0109  0.0016  0.0016  0.0000  0.0048  0.7422
   8.  O -0.0109  0.0016  0.0016  0.6887 -0.0166 -0.0166  0.0048  0.0000 -0.0028
   9.  C  0.0212 -0.0137 -0.0141  0.0021 -0.0007 -0.0007  0.7422 -0.0028  0.0000
  10.  C -0.0038  0.0092  0.0092 -0.0013  0.0003  0.0003 -0.0235 -0.0020  1.2327
  11.  C -0.0262  0.0125  0.0126 -0.0010 -0.0005 -0.0005 -0.0413 -0.0005  1.5536
  12.  C -0.0083  0.0013  0.0013 -0.0027  0.0005  0.0005  0.0085  0.0002  0.0232
  13.  C  0.0002  0.0002  0.0002 -0.0018  0.0004  0.0004  0.0059 -0.0012  0.0327
  14.  C  0.0094 -0.0118 -0.0118  0.0001  0.0004  0.0004  0.0214  0.0000 -0.0455
  15.  H  0.0010  0.0001  0.0001  0.0010 -0.0001 -0.0001 -0.0003 -0.0006  0.0031
  16.  H -0.0018  0.0012  0.0013  0.0020 -0.0002 -0.0003  0.0007 -0.0010  0.0025
  17.  H -0.0018  0.0000  0.0000  0.0001 -0.0001 -0.0001  0.0008  0.0002  0.0012
  18.  H  0.0014  0.0002  0.0002  0.0003  0.0000  0.0001 -0.0033  0.0002  0.0010
  19.  H -0.0001 -0.0002 -0.0002 -0.0002  0.0001  0.0000  0.0057  0.0001  0.0071
  20.  C  0.0021 -0.0007 -0.0007  0.0212 -0.0141 -0.0138 -0.0028  0.7422  0.0039
  21.  C -0.0013  0.0003  0.0003 -0.0038  0.0092  0.0092 -0.0020 -0.0235  0.0000
  22.  C -0.0010 -0.0005 -0.0005 -0.0262  0.0125  0.0126 -0.0005 -0.0413  0.0004
  23.  C -0.0027  0.0005  0.0005 -0.0083  0.0013  0.0013  0.0002  0.0085 -0.0001
  24.  C -0.0018  0.0004  0.0004  0.0002  0.0002  0.0002 -0.0012  0.0059 -0.0003
  25.  C  0.0001  0.0004  0.0004  0.0094 -0.0118 -0.0118  0.0000  0.0214 -0.0004
  26.  H  0.0010 -0.0001 -0.0001  0.0010  0.0001  0.0001 -0.0006 -0.0003  0.0002
  27.  H  0.0020 -0.0002 -0.0003 -0.0018  0.0012  0.0013 -0.0010  0.0007  0.0001
  28.  H  0.0001 -0.0001 -0.0001 -0.0018  0.0000  0.0000  0.0002  0.0008 -0.0002
  29.  H  0.0003  0.0000  0.0001  0.0014  0.0002  0.0002  0.0002 -0.0033 -0.0001
  30.  H -0.0002  0.0001  0.0000 -0.0001 -0.0002 -0.0002  0.0001  0.0057  0.0000

     Atom   10      11      12      13      14      15      16      17      18
     ---- ------  ------  ------  ------  ------  ------  ------  ------  ------
   1.  C -0.0038 -0.0262 -0.0083  0.0002  0.0094  0.0010 -0.0018 -0.0018  0.0014
   2.  H  0.0092  0.0125  0.0013  0.0002 -0.0118  0.0001  0.0012  0.0000  0.0002
   3.  H  0.0092  0.0126  0.0013  0.0002 -0.0118  0.0001  0.0013  0.0000  0.0002
   4.  C -0.0013 -0.0010 -0.0027 -0.0018  0.0001  0.0010  0.0020  0.0001  0.0003
   5.  H  0.0003 -0.0005  0.0005  0.0004  0.0004 -0.0001 -0.0002 -0.0001  0.0000
   6.  H  0.0003 -0.0005  0.0005  0.0004  0.0004 -0.0001 -0.0003 -0.0001  0.0001
   7.  O -0.0235 -0.0413  0.0085  0.0059  0.0214 -0.0003  0.0007  0.0008 -0.0033
   8.  O -0.0020 -0.0005  0.0002 -0.0012  0.0000 -0.0006 -0.0010  0.0002  0.0002
   9.  C  1.2327  1.5536  0.0232  0.0327 -0.0455  0.0031  0.0025  0.0012  0.0010
  10.  C  0.0000 -0.0073  1.6534 -0.0484 -0.0458  0.7581  0.0082  0.0016  0.0072
  11.  C -0.0073  0.0000 -0.0453  1.2473 -0.0379  0.0033  0.7604  0.0069  0.0024
  12.  C  1.6534 -0.0453  0.0000  0.0226  1.2668  0.0028  0.0061  0.7672  0.0011
  13.  C -0.0484  1.2473  0.0226  0.0000  1.6496  0.0069  0.0023  0.0014  0.7676
  14.  C -0.0458 -0.0379  1.2668  1.6496  0.0000  0.0088  0.0084  0.0010  0.0021
  15.  H  0.7581  0.0033  0.0028  0.0069  0.0088  0.0000  0.0008 -0.0019 -0.0057
  16.  H  0.0082  0.7604  0.0061  0.0023  0.0084  0.0008  0.0000 -0.0056 -0.0027
  17.  H  0.0016  0.0069  0.7672  0.0014  0.0010 -0.0019 -0.0056  0.0000 -0.0028
  18.  H  0.0072  0.0024  0.0011  0.7676  0.0021 -0.0057 -0.0027 -0.0028  0.0000
  19.  H  0.0011  0.0010  0.0013  0.0016  0.7666 -0.0009 -0.0011 -0.0033 -0.0032
  20.  C  0.0000  0.0004 -0.0001 -0.0003 -0.0004  0.0002  0.0001 -0.0002 -0.0001
  21.  C -0.0005 -0.0001 -0.0002 -0.0001  0.0000 -0.0001  0.0002  0.0001 -0.0001
  22.  C -0.0001  0.0005 -0.0001 -0.0002 -0.0001  0.0000  0.0000  0.0000  0.0000
  23.  C -0.0002 -0.0001  0.0001  0.0001  0.0000  0.0000  0.0000  0.0000  0.0000
  24.  C -0.0001 -0.0002  0.0001  0.0002  0.0001  0.0000 -0.0001  0.0000  0.0000
  25.  C  0.0000 -0.0001  0.0000  0.0001  0.0001  0.0000 -0.0001  0.0000  0.0000
  26.  H -0.0001  0.0000  0.0000  0.0000  0.0000  0.0001  0.0001  0.0000  0.0000
  27.  H  0.0002  0.0000  0.0000 -0.0001 -0.0001  0.0001  0.0002  0.0000  0.0000
  28.  H  0.0001  0.0000  0.0000  0.0000  0.0000  0.0000  0.0000  0.0000  0.0000
  29.  H -0.0001  0.0000  0.0000  0.0000  0.0000  0.0000  0.0000  0.0000  0.0000
  30.  H  0.0000  0.0000  0.0000  0.0000  0.0000  0.0000  0.0000  0.0000  0.0000

     Atom   19      20      21      22      23      24      25      26      27
     ---- ------  ------  ------  ------  ------  ------  ------  ------  ------
   1.  C -0.0001  0.0021 -0.0013 -0.0010 -0.0027 -0.0018  0.0001  0.0010  0.0020
   2.  H -0.0002 -0.0007  0.0003 -0.0005  0.0005  0.0004  0.0004 -0.0001 -0.0002
   3.  H -0.0002 -0.0007  0.0003 -0.0005  0.0005  0.0004  0.0004 -0.0001 -0.0003
   4.  C -0.0002  0.0212 -0.0038 -0.0262 -0.0083  0.0002  0.0094  0.0010 -0.0018
   5.  H  0.0001 -0.0141  0.0092  0.0125  0.0013  0.0002 -0.0118  0.0001  0.0012
   6.  H  0.0000 -0.0138  0.0092  0.0126  0.0013  0.0002 -0.0118  0.0001  0.0013
   7.  O  0.0057 -0.0028 -0.0020 -0.0005  0.0002 -0.0012  0.0000 -0.0006 -0.0010
   8.  O  0.0001  0.7422 -0.0235 -0.0413  0.0085  0.0059  0.0214 -0.0003  0.0007
   9.  C  0.0071  0.0039  0.0000  0.0004 -0.0001 -0.0003 -0.0004  0.0002  0.0001
  10.  C  0.0011  0.0000 -0.0005 -0.0001 -0.0002 -0.0001  0.0000 -0.0001  0.0002
  11.  C  0.0010  0.0004 -0.0001  0.0005 -0.0001 -0.0002 -0.0001  0.0000  0.0000
  12.  C  0.0013 -0.0001 -0.0002 -0.0001  0.0001  0.0001  0.0000  0.0000  0.0000
  13.  C  0.0016 -0.0003 -0.0001 -0.0002  0.0001  0.0002  0.0001  0.0000 -0.0001
  14.  C  0.7666 -0.0004  0.0000 -0.0001  0.0000  0.0001  0.0001  0.0000 -0.0001
  15.  H -0.0009  0.0002 -0.0001  0.0000  0.0000  0.0000  0.0000  0.0001  0.0001
  16.  H -0.0011  0.0001  0.0002  0.0000  0.0000 -0.0001 -0.0001  0.0001  0.0002
  17.  H -0.0033 -0.0002  0.0001  0.0000  0.0000  0.0000  0.0000  0.0000  0.0000
  18.  H -0.0032 -0.0001 -0.0001  0.0000  0.0000  0.0000  0.0000  0.0000  0.0000
  19.  H  0.0000  0.0000  0.0000  0.0000  0.0000  0.0000  0.0000  0.0000  0.0000
  20.  C  0.0000  0.0000  1.2327  1.5536  0.0232  0.0327 -0.0455  0.0031  0.0025
  21.  C  0.0000  1.2327  0.0000 -0.0073  1.6534 -0.0485 -0.0458  0.7581  0.0082
  22.  C  0.0000  1.5536 -0.0073  0.0000 -0.0453  1.2473 -0.0379  0.0033  0.7604
  23.  C  0.0000  0.0232  1.6534 -0.0453  0.0000  0.0226  1.2668  0.0028  0.0061
  24.  C  0.0000  0.0327 -0.0485  1.2473  0.0226  0.0000  1.6496  0.0069  0.0023
  25.  C  0.0000 -0.0455 -0.0458 -0.0379  1.2668  1.6496  0.0000  0.0088  0.0084
  26.  H  0.0000  0.0031  0.7581  0.0033  0.0028  0.0069  0.0088  0.0000  0.0008
  27.  H  0.0000  0.0025  0.0082  0.7604  0.0061  0.0023  0.0084  0.0008  0.0000
  28.  H  0.0000  0.0012  0.0016  0.0069  0.7672  0.0014  0.0010 -0.0019 -0.0056
  29.  H  0.0000  0.0010  0.0072  0.0024  0.0011  0.7676  0.0021 -0.0057 -0.0027
  30.  H  0.0000  0.0071  0.0011  0.0010  0.0013  0.0016  0.7666 -0.0009 -0.0011

     Atom   28      29      30
     ---- ------  ------  ------
   1.  C  0.0001  0.0003 -0.0002
   2.  H -0.0001  0.0000  0.0001
   3.  H -0.0001  0.0001  0.0000
   4.  C -0.0018  0.0014 -0.0001
   5.  H  0.0000  0.0002 -0.0002
   6.  H  0.0000  0.0002 -0.0002
   7.  O  0.0002  0.0002  0.0001
   8.  O  0.0008 -0.0033  0.0057
   9.  C -0.0002 -0.0001  0.0000
  10.  C  0.0001 -0.0001  0.0000
  11.  C  0.0000  0.0000  0.0000
  12.  C  0.0000  0.0000  0.0000
  13.  C  0.0000  0.0000  0.0000
  14.  C  0.0000  0.0000  0.0000
  15.  H  0.0000  0.0000  0.0000
  16.  H  0.0000  0.0000  0.0000
  17.  H  0.0000  0.0000  0.0000
  18.  H  0.0000  0.0000  0.0000
  19.  H  0.0000  0.0000  0.0000
  20.  C  0.0012  0.0010  0.0071
  21.  C  0.0016  0.0072  0.0011
  22.  C  0.0069  0.0024  0.0010
  23.  C  0.7672  0.0011  0.0013
  24.  C  0.0014  0.7676  0.0016
  25.  C  0.0010  0.0021  0.7666
  26.  H -0.0019 -0.0057 -0.0009
  27.  H -0.0056 -0.0027 -0.0011
  28.  H  0.0000 -0.0028 -0.0033
  29.  H -0.0028  0.0000 -0.0032
  30.  H -0.0033 -0.0032  0.0000


 Linear NLMO/NPA Bond Orders, Totals by Atom:                                  

     Atom    1
     ---- ------
   1.  C  3.2250
   2.  H  0.7592
   3.  H  0.7590
   4.  C  3.2250
   5.  H  0.7589
   6.  H  0.7593
   7.  O  1.3619
   8.  O  1.3619
   9.  C  3.5486
  10.  C  3.5483
  11.  C  3.4397
  12.  C  3.7002
  13.  C  3.6878
  14.  C  3.5817
  15.  H  0.7765
  16.  H  0.7816
  17.  H  0.7646
  18.  H  0.7658
  19.  H  0.7754
  20.  C  3.5486
  21.  C  3.5483
  22.  C  3.4396
  23.  C  3.7002
  24.  C  3.6878
  25.  C  3.5817
  26.  H  0.7765
  27.  H  0.7816
  28.  H  0.7646
  29.  H  0.7658
  30.  H  0.7754
 Leave Link  607 at Fri May 17 10:30:17 2024, MaxMem=  6291456000 cpu:       651.0
 (Enter /home/madghost/g09/l9999.exe)
 1\1\GINC-NODE-6\SP\RPBE1PBE\Gen\C14H14O2\NATALYA\17-May-2024\0\\#P PBE
 1PBE/GEN pop=nboread\\H12\\0,1\C,0,-0.639498173,-0.272112696,-0.293238
 396\H,0,-0.822559267,-1.28486853,0.082145198\H,0,-0.559063748,-0.31915
 2306,-1.384951969\C,0,0.639759708,0.27168116,0.293542999\H,0,0.8221956
 73,1.284891653,-0.08092902\H,0,0.559958612,0.317594611,1.385346246\O,0
 ,-1.664828444,0.605475991,0.100954852\O,0,1.665277067,-0.605093959,-0.
 102047711\C,0,-2.928866897,0.329704435,-0.302319012\C,0,-3.912029357,1
 .222744438,0.118177444\C,0,-3.274657261,-0.764079746,-1.087964191\C,0,
 -5.228977363,1.019877491,-0.245737999\C,0,-4.604509994,-0.953444407,-1
 .445714093\C,0,-5.585794573,-0.070793666,-1.031244402\H,0,-3.618060389
 ,2.067266173,0.728765997\H,0,-2.52542387,-1.466710451,-1.424663019\H,0
 ,-5.985825628,1.720146333,0.086715514\H,0,-4.867366381,-1.807784845,-2
 .0581671\H,0,-6.618469845,-0.226864061,-1.315656328\C,0,2.9292116,-0.3
 29959145,0.301985312\C,0,3.912466497,-1.222392187,-0.119587319\C,0,3.2
 74824858,0.762680483,1.0893014\C,0,5.229320999,-1.020097762,0.24498637
 1\C,0,4.604582365,0.951463714,1.447717157\C,0,5.58594725,0.069384645,1
 .032225647\H,0,3.61861943,-2.065983959,-0.73152313\H,0,2.52551763,1.46
 4881648,1.426720367\H,0,5.986248389,-1.719879435,-0.088308882\H,0,4.86
 730923,1.804898097,2.061492211\H,0,6.618547105,0.224991258,1.317164802
 \\Version=EM64L-G09RevD.01\State=1-A\HF=-691.7970034\RMSD=5.477e-09\Di
 pole=-0.0000969,-0.0003234,0.0005246\Quadrupole=2.2399927,0.6712117,-2
 .9112044,0.2077422,1.6284729,4.6989622\PG=C01 [X(C14H14O2)]\\@


 LENDING MONEY TO FRIENDS CAUSES THEM TO LOSE THEIR MEMORIES.

    --  PETER'S THEORY OF RECIPROCAL INHIBITION OF FISCAL RECALL
 Job cpu time:       0 days  2 hours 45 minutes 25.8 seconds.
 File lengths (MBytes):  RWF=    259 Int=      0 D2E=      0 Chk=     18 Scr=      1
 Normal termination of Gaussian 09 at Fri May 17 10:30:18 2024.
