 Entering Gaussian System, Link 0=/home/madghost/g09/g09
 Input=job96.gjf
 Output=job96.log
 Initial command:
 /home/madghost/g09/l1.exe "/scr/natalya/job96/Gau-504104.inp" -scrdir="/scr/natalya/job96/"
 Entering Link 1 = /home/madghost/g09/l1.exe PID=    504106.
  
 Copyright (c) 1988,1990,1992,1993,1995,1998,2003,2009,2013,
            Gaussian, Inc.  All Rights Reserved.
  
 This is part of the Gaussian(R) 09 program.  It is based on
 the Gaussian(R) 03 system (copyright 2003, Gaussian, Inc.),
 the Gaussian(R) 98 system (copyright 1998, Gaussian, Inc.),
 the Gaussian(R) 94 system (copyright 1995, Gaussian, Inc.),
 the Gaussian 92(TM) system (copyright 1992, Gaussian, Inc.),
 the Gaussian 90(TM) system (copyright 1990, Gaussian, Inc.),
 the Gaussian 88(TM) system (copyright 1988, Gaussian, Inc.),
 the Gaussian 86(TM) system (copyright 1986, Carnegie Mellon
 University), and the Gaussian 82(TM) system (copyright 1983,
 Carnegie Mellon University). Gaussian is a federally registered
 trademark of Gaussian, Inc.
  
 This software contains proprietary and confidential information,
 including trade secrets, belonging to Gaussian, Inc.
  
 This software is provided under written license and may be
 used, copied, transmitted, or stored only in accord with that
 written license.
  
 The following legend is applicable only to US Government
 contracts under FAR:
  
                    RESTRICTED RIGHTS LEGEND
  
 Use, reproduction and disclosure by the US Government is
 subject to restrictions as set forth in subparagraphs (a)
 and (c) of the Commercial Computer Software - Restricted
 Rights clause in FAR 52.227-19.
  
 Gaussian, Inc.
 340 Quinnipiac St., Bldg. 40, Wallingford CT 06492
  
  
 ---------------------------------------------------------------
 Warning -- This program may not be used in any manner that
 competes with the business of Gaussian, Inc. or will provide
 assistance to any competitor of Gaussian, Inc.  The licensee
 of this program is prohibited from giving any competitor of
 Gaussian, Inc. access to this program.  By using this program,
 the user acknowledges that Gaussian, Inc. is engaged in the
 business of creating and licensing software in the field of
 computational chemistry and represents and warrants to the
 licensee that it is not a competitor of Gaussian, Inc. and that
 it will not use this program in any manner prohibited above.
 ---------------------------------------------------------------
  

 Cite this work as:
 Gaussian 09, Revision D.01,
 M. J. Frisch, G. W. Trucks, H. B. Schlegel, G. E. Scuseria, 
 M. A. Robb, J. R. Cheeseman, G. Scalmani, V. Barone, B. Mennucci, 
 G. A. Petersson, H. Nakatsuji, M. Caricato, X. Li, H. P. Hratchian, 
 A. F. Izmaylov, J. Bloino, G. Zheng, J. L. Sonnenberg, M. Hada, 
 M. Ehara, K. Toyota, R. Fukuda, J. Hasegawa, M. Ishida, T. Nakajima, 
 Y. Honda, O. Kitao, H. Nakai, T. Vreven, J. A. Montgomery, Jr., 
 J. E. Peralta, F. Ogliaro, M. Bearpark, J. J. Heyd, E. Brothers, 
 K. N. Kudin, V. N. Staroverov, T. Keith, R. Kobayashi, J. Normand, 
 K. Raghavachari, A. Rendell, J. C. Burant, S. S. Iyengar, J. Tomasi, 
 M. Cossi, N. Rega, J. M. Millam, M. Klene, J. E. Knox, J. B. Cross, 
 V. Bakken, C. Adamo, J. Jaramillo, R. Gomperts, R. E. Stratmann, 
 O. Yazyev, A. J. Austin, R. Cammi, C. Pomelli, J. W. Ochterski, 
 R. L. Martin, K. Morokuma, V. G. Zakrzewski, G. A. Voth, 
 P. Salvador, J. J. Dannenberg, S. Dapprich, A. D. Daniels, 
 O. Farkas, J. B. Foresman, J. V. Ortiz, J. Cioslowski, 
 and D. J. Fox, Gaussian, Inc., Wallingford CT, 2013.
 
 ******************************************
 Gaussian 09:  EM64L-G09RevD.01 24-Apr-2013
                17-May-2024 
 ******************************************
 %chk=job96
 %nproc=24
 Will use up to   24 processors via shared memory.
 %mem=48000mb
 --------------------------
 #P PBE1PBE/GEN pop=nboread
 --------------------------
 1/38=1/1;
 2/12=2,17=6,18=5,40=1/2;
 3/5=7,11=2,16=1,25=1,30=1,74=-13/1,2,3;
 4//1;
 5/5=2,38=5/2;
 6/7=2,8=2,9=2,10=2,28=1,40=2/1,7;
 99/5=1,9=1/99;
 Leave Link    1 at Fri May 17 10:23:51 2024, MaxMem=  6291456000 cpu:         1.3
 (Enter /home/madghost/g09/l101.exe)
 ---
 c2h
 ---
 Symbolic Z-matrix:
 Charge =  0 Multiplicity = 1
 6                     0.25989   0.89603  -1.12169 
 1                     0.70762   1.11554  -2.10077 
 1                     0.032    -0.17515  -1.0796 
 6                    -0.99774   1.71399  -0.96127 
 1                    -0.72581   2.75951  -0.80851 
 1                    -1.6025    1.65122  -1.87247 
 8                     1.14094   1.25064  -0.08394 
 8                    -1.74961   1.35643   0.17465 
 6                     2.31674   0.58627   0.01085 
 6                     2.73874  -0.39171  -0.88334 
 6                     3.13041   0.94037   1.08537 
 6                     3.97042  -1.00706  -0.69195 
 6                     4.35175   0.32034   1.26058 
 6                     4.78206  -0.65961   0.37274 
 1                     2.12404  -0.68123  -1.72489 
 1                     2.77959   1.70315   1.76996 
 1                     4.29135  -1.76941  -1.39284 
 1                     4.97551   0.60336   2.10086 
 1                     5.73999  -1.14499   0.51358 
 6                    -2.49441   0.22431   0.14591 
 6                    -3.10913  -0.11892   1.34864 
 6                    -2.68812  -0.57513  -0.97642 
 6                    -3.90924  -1.242     1.424 
 6                    -3.49647  -1.70204  -0.88477 
 6                    -4.10992  -2.0444    0.30673 
 1                    -2.9424    0.51532   2.21083 
 1                    -2.2228   -0.33754  -1.92351 
 1                    -4.38104  -1.49541   2.36656 
 1                    -3.64049  -2.31736  -1.76574 
 1                    -4.73564  -2.92621   0.36854 
 
 NAtoms=     30 NQM=       30 NQMF=       0 NMMI=      0 NMMIF=      0
                NMic=       0 NMicF=      0.
                    Isotopes and Nuclear Properties:
 (Nuclear quadrupole moments (NQMom) in fm**2, nuclear magnetic moments (NMagM)
  in nuclear magnetons)

  Atom         1           2           3           4           5           6           7           8           9          10
 IAtWgt=          12           1           1          12           1           1          16          16          12          12
 AtmWgt=  12.0000000   1.0078250   1.0078250  12.0000000   1.0078250   1.0078250  15.9949146  15.9949146  12.0000000  12.0000000
 NucSpn=           0           1           1           0           1           1           0           0           0           0
 AtZEff=   0.0000000   0.0000000   0.0000000   0.0000000   0.0000000   0.0000000   0.0000000   0.0000000   0.0000000   0.0000000
 NQMom=    0.0000000   0.0000000   0.0000000   0.0000000   0.0000000   0.0000000   0.0000000   0.0000000   0.0000000   0.0000000
 NMagM=    0.0000000   2.7928460   2.7928460   0.0000000   2.7928460   2.7928460   0.0000000   0.0000000   0.0000000   0.0000000
 AtZNuc=   6.0000000   1.0000000   1.0000000   6.0000000   1.0000000   1.0000000   8.0000000   8.0000000   6.0000000   6.0000000

  Atom        11          12          13          14          15          16          17          18          19          20
 IAtWgt=          12          12          12          12           1           1           1           1           1          12
 AtmWgt=  12.0000000  12.0000000  12.0000000  12.0000000   1.0078250   1.0078250   1.0078250   1.0078250   1.0078250  12.0000000
 NucSpn=           0           0           0           0           1           1           1           1           1           0
 AtZEff=   0.0000000   0.0000000   0.0000000   0.0000000   0.0000000   0.0000000   0.0000000   0.0000000   0.0000000   0.0000000
 NQMom=    0.0000000   0.0000000   0.0000000   0.0000000   0.0000000   0.0000000   0.0000000   0.0000000   0.0000000   0.0000000
 NMagM=    0.0000000   0.0000000   0.0000000   0.0000000   2.7928460   2.7928460   2.7928460   2.7928460   2.7928460   0.0000000
 AtZNuc=   6.0000000   6.0000000   6.0000000   6.0000000   1.0000000   1.0000000   1.0000000   1.0000000   1.0000000   6.0000000

  Atom        21          22          23          24          25          26          27          28          29          30
 IAtWgt=          12          12          12          12          12           1           1           1           1           1
 AtmWgt=  12.0000000  12.0000000  12.0000000  12.0000000  12.0000000   1.0078250   1.0078250   1.0078250   1.0078250   1.0078250
 NucSpn=           0           0           0           0           0           1           1           1           1           1
 AtZEff=   0.0000000   0.0000000   0.0000000   0.0000000   0.0000000   0.0000000   0.0000000   0.0000000   0.0000000   0.0000000
 NQMom=    0.0000000   0.0000000   0.0000000   0.0000000   0.0000000   0.0000000   0.0000000   0.0000000   0.0000000   0.0000000
 NMagM=    0.0000000   0.0000000   0.0000000   0.0000000   0.0000000   2.7928460   2.7928460   2.7928460   2.7928460   2.7928460
 AtZNuc=   6.0000000   6.0000000   6.0000000   6.0000000   6.0000000   1.0000000   1.0000000   1.0000000   1.0000000   1.0000000
 Leave Link  101 at Fri May 17 10:23:51 2024, MaxMem=  6291456000 cpu:         3.0
 (Enter /home/madghost/g09/l202.exe)
                          Input orientation:                          
 ---------------------------------------------------------------------
 Center     Atomic      Atomic             Coordinates (Angstroms)
 Number     Number       Type             X           Y           Z
 ---------------------------------------------------------------------
      1          6           0        0.259894    0.896027   -1.121690
      2          1           0        0.707616    1.115540   -2.100768
      3          1           0        0.031997   -0.175146   -1.079604
      4          6           0       -0.997737    1.713986   -0.961274
      5          1           0       -0.725810    2.759512   -0.808513
      6          1           0       -1.602501    1.651223   -1.872468
      7          8           0        1.140938    1.250643   -0.083935
      8          8           0       -1.749613    1.356430    0.174654
      9          6           0        2.316744    0.586269    0.010845
     10          6           0        2.738743   -0.391713   -0.883339
     11          6           0        3.130409    0.940374    1.085366
     12          6           0        3.970417   -1.007057   -0.691952
     13          6           0        4.351755    0.320341    1.260575
     14          6           0        4.782059   -0.659605    0.372744
     15          1           0        2.124041   -0.681229   -1.724891
     16          1           0        2.779592    1.703146    1.769957
     17          1           0        4.291354   -1.769408   -1.392843
     18          1           0        4.975514    0.603356    2.100864
     19          1           0        5.739990   -1.144993    0.513581
     20          6           0       -2.494410    0.224309    0.145914
     21          6           0       -3.109130   -0.118917    1.348641
     22          6           0       -2.688123   -0.575133   -0.976417
     23          6           0       -3.909236   -1.241996    1.424003
     24          6           0       -3.496469   -1.702042   -0.884765
     25          6           0       -4.109921   -2.044405    0.306725
     26          1           0       -2.942399    0.515319    2.210829
     27          1           0       -2.222802   -0.337541   -1.923513
     28          1           0       -4.381038   -1.495406    2.366561
     29          1           0       -3.640488   -2.317360   -1.765742
     30          1           0       -4.735643   -2.926213    0.368543
 ---------------------------------------------------------------------
                    Distance matrix (angstroms):
                    1          2          3          4          5
     1  C    0.000000
     2  H    1.098742   0.000000
     3  H    1.095956   1.779075   0.000000
     4  C    1.508783   2.136542   2.154802   0.000000
     5  H    2.131260   2.535207   3.043021   1.091057   0.000000
     6  H    2.145345   2.382376   2.576013   1.095424   1.768867
     7  O    1.406743   2.067277   2.062518   2.357613   2.507279
     8  O    2.435282   3.357610   2.663273   1.408367   1.995853
     9  C    2.368379   2.707089   2.643653   3.633531   3.827724
    10  C    2.803530   2.807031   2.722480   4.289677   4.683903
    11  C    3.621176   4.006502   3.941020   4.672130   4.665455
    12  C    4.192181   4.139571   4.043946   5.670905   6.021227
    13  C    4.769688   5.021028   4.937839   5.957846   6.001029
    14  C    5.010319   5.086304   4.990702   6.389020   6.589564
    15  H    2.515280   2.318603   2.247034   4.008200   4.560712
    16  H    3.919431   4.429546   4.381467   4.661325   4.477975
    17  H    4.840531   4.654811   4.558718   6.347816   6.784135
    18  H    5.719054   6.010907   5.929570   6.803669   6.754153
    19  H    6.072176   6.104885   6.005000   7.466319   7.668094
    20  C    3.105514   4.011838   2.836228   2.384331   3.235140
    21  C    4.299182   5.290544   3.970669   3.626737   4.314960
    22  C    3.297911   3.956461   2.751307   2.845646   3.872818
    23  C    5.332292   6.268757   4.789523   4.785834   5.579462
    24  C    4.573441   5.204975   3.849603   4.233056   5.252412
    25  C    5.457270   6.244192   4.750950   5.041727   5.981102
    26  H    4.637381   5.680910   4.488956   3.909060   4.366474
    27  H    2.885895   3.275700   2.413022   2.575937   3.616068
    28  H    6.278941   7.257304   5.752740   5.728997   6.445627
    29  H    5.094471   5.550050   4.306624   4.887029   5.931801
    30  H    6.464186   7.215423   5.691739   6.105064   7.056323
                    6          7          8          9         10
     6  H    0.000000
     7  O    3.299359   0.000000
     8  O    2.073464   2.904022   0.000000
     9  C    4.476771   1.353845   4.141889   0.000000
    10  C    4.898812   2.426801   4.931601   1.390718   0.000000
    11  C    5.626235   2.328417   4.981678   1.393570   2.409078
    12  C    6.286293   3.670537   6.249466   2.401509   1.390071
    13  C    6.858598   3.603126   6.283263   2.402876   2.775823
    14  C    7.151469   4.137072   6.838595   2.785848   2.413431
    15  H    4.398776   2.718705   4.771323   2.157884   1.081614
    16  H    5.698482   2.515325   4.814447   2.134506   3.380841
    17  H    6.831419   4.556212   6.980057   3.379148   2.137344
    18  H    7.756009   4.460527   7.035960   3.381942   3.859893
    19  H    8.211226   5.219902   7.903552   3.868931   3.395040
    20  C    2.627823   3.784435   1.355451   4.826641   5.368867
    21  C    3.972263   4.689461   2.324474   5.632681   6.265283
    22  C    2.634036   4.334938   2.436535   5.231848   5.430762
    23  C    4.955650   5.830213   3.602313   6.640963   7.088190
    24  C    3.975809   5.555648   3.678060   6.311254   6.371407
    25  C    4.969276   6.211399   4.141760   6.950541   7.145057
    26  H    4.445101   4.741338   2.505237   5.701188   6.532378
    27  H    2.083881   4.149834   2.737837   5.020223   5.069697
    28  H    5.965812   6.636108   4.456660   7.398855   7.903877
    29  H    4.462559   6.198480   4.564787   6.861191   6.721707
    30  H    5.982611   7.223923   5.224462   7.886802   7.991079
                   11         12         13         14         15
    11  C    0.000000
    12  C    2.767121   0.000000
    13  C    1.380878   2.391603   0.000000
    14  C    2.407428   1.383135   1.390575   0.000000
    15  H    3.397045   2.140615   3.857312   3.386089   0.000000
    16  H    1.083309   3.850229   2.154836   3.397745   4.281233
    17  H    3.851264   1.084171   3.378065   2.142371   2.447782
    18  H    2.132892   3.376903   1.084093   2.149161   4.941402
    19  H    3.389042   2.145629   2.152301   1.083083   4.277958
    20  C    5.747513   6.634174   6.936978   7.333468   5.064583
    21  C    6.334292   7.421105   7.474323   7.969666   6.094987
    22  C    6.356337   6.678595   7.440826   7.591508   4.871180
    23  C    7.377941   8.162193   8.409018   8.773992   6.828647
    24  C    7.401303   7.501638   8.383742   8.438130   5.773907
    25  C    7.870042   8.207637   8.837523   8.999408   6.696865
    26  H    6.190827   7.650542   7.358375   8.026597   6.526135
    27  H    6.272423   6.349878   7.334577   7.378658   4.364930
    28  H    7.999770   8.907288   8.987870   9.414681   7.727802
    29  H    8.036585   7.797166   8.943825   8.846501   5.992361
    30  H    8.794265   8.977934   9.691060   9.783874   7.515164
                   16         17         18         19         20
    16  H    0.000000
    17  H    4.934304   0.000000
    18  H    2.478126   4.278326   0.000000
    19  H    4.295851   2.474448   2.482059   0.000000
    20  C    5.713105   7.238043   7.730800   8.355568   0.000000
    21  C    6.178549   8.062693   8.151625   8.947462   1.393642
    22  C    6.529091   7.093152   8.342052   8.577757   1.391495
    23  C    7.316691   8.686913   9.099574   9.692566   2.405264
    24  C    7.617860   7.804670   9.273798   9.358304   2.403591
    25  C    7.978131   8.575872   9.631963   9.893052   2.789767
    26  H    5.860587   8.398429   7.919166   9.001176   2.132898
    27  H    6.544469   6.690746   8.300401   8.366449   2.161475
    28  H    7.865195   9.456140   9.592730  10.295219   3.383498
    29  H    8.359609   7.959486   9.885176   9.724357   3.380533
    30  H    8.937208   9.269701  10.476897  10.626978   3.872787
                   21         22         23         24         25
    21  C    0.000000
    22  C    2.406507   0.000000
    23  C    1.380998   2.774498   0.000000
    24  C    2.764854   1.389873   2.390069   0.000000
    25  C    2.407213   2.413861   1.390124   1.383179   0.000000
    26  H    1.083246   3.378206   2.154536   3.847907   3.397191
    27  H    3.397111   1.081649   3.855900   2.136139   3.383573
    28  H    2.132752   3.858544   1.084080   3.375838   2.148913
    29  H    3.849010   2.136677   3.376849   1.084195   2.142426
    30  H    3.389255   3.395413   2.152564   2.145910   1.083021
                   26         27         28         29         30
    26  H    0.000000
    27  H    4.282286   0.000000
    28  H    2.477287   4.939977   0.000000
    29  H    4.931989   2.440166   4.277844   0.000000
    30  H    4.295798   4.274238   2.482948   2.474922   0.000000
 Stoichiometry    C14H14O2
 Framework group  C1[X(C14H14O2)]
 Deg. of freedom    84
 Full point group                 C1      NOp   1
 Largest Abelian subgroup         C1      NOp   1
 Largest concise Abelian subgroup C1      NOp   1
                         Standard orientation:                         
 ---------------------------------------------------------------------
 Center     Atomic      Atomic             Coordinates (Angstroms)
 Number     Number       Type             X           Y           Z
 ---------------------------------------------------------------------
      1          6           0        0.357538    0.970722   -1.028816
      2          1           0        0.824967    1.237028   -1.986848
      3          1           0        0.009213   -0.066477   -1.092127
      4          6           0       -0.798343    1.904946   -0.768832
      5          1           0       -0.408722    2.891923   -0.514907
      6          1           0       -1.408534    2.004339   -1.673123
      7          8           0        1.275762    1.115614    0.027023
      8          8           0       -1.583288    1.520581    0.335532
      9          6           0        2.368465    0.316374    0.037588
     10          6           0        2.674142   -0.606596   -0.956789
     11          6           0        3.219780    0.464624    1.130895
     12          6           0        3.828169   -1.373560   -0.845946
     13          6           0        4.362973   -0.304154    1.225315
     14          6           0        4.676693   -1.230653    0.236943
     15          1           0        2.028418   -0.737297   -1.814603
     16          1           0        2.959798    1.188251    1.894002
     17          1           0        4.058475   -2.091728   -1.624806
     18          1           0        5.016951   -0.180773    2.081088
     19          1           0        5.573440   -1.833065    0.314490
     20          6           0       -2.452262    0.488822    0.202854
     21          6           0       -3.099150    0.096291    1.373193
     22          6           0       -2.738505   -0.164780   -0.991770
     23          6           0       -4.021790   -0.930909    1.345764
     24          6           0       -3.669728   -1.196497   -1.003266
     25          6           0       -4.315285   -1.587170    0.155963
     26          1           0       -2.859164    0.616231    2.292700
     27          1           0       -2.251454    0.114139   -1.916406
     28          1           0       -4.517093   -1.224264    2.264375
     29          1           0       -3.885041   -1.698388   -1.939869
     30          1           0       -5.037227   -2.394250    0.137024
 ---------------------------------------------------------------------
 Rotational constants (GHZ):      1.1436899      0.2271910      0.2199843
 Leave Link  202 at Fri May 17 10:23:51 2024, MaxMem=  6291456000 cpu:         0.1
 (Enter /home/madghost/g09/l301.exe)
 General basis read from cards:  (5D, 7F)
 Centers:       2      3      5      6     15     16     17     18     19     26
 Centers:      27     28     29     30
 S 3 1.00
     Exponent=  3.4061341000D+01 Coefficients=  6.0251978000D-03
     Exponent=  5.1235746000D+00 Coefficients=  4.5021094000D-02
     Exponent=  1.1646626000D+00 Coefficients=  2.0189726000D-01
 S 1 1.00
     Exponent=  3.2723041000D-01 Coefficients=  1.0000000000D+00
 S 1 1.00
     Exponent=  1.0307241000D-01 Coefficients=  1.0000000000D+00
 P 1 1.00
     Exponent=  1.4070000000D+00 Coefficients=  1.0000000000D+00
 P 1 1.00
     Exponent=  3.8800000000D-01 Coefficients=  1.0000000000D+00
 D 1 1.00
     Exponent=  1.0570000000D+00 Coefficients=  1.0000000000D+00
 ****
 Centers:       1      4      9     10     11     12     13     14     20     21
 Centers:      22     23     24     25
 S 6 1.00
     Exponent=  1.3575349682D+04 Coefficients=  2.2245814352D-04
     Exponent=  2.0352333680D+03 Coefficients=  1.7232738252D-03
     Exponent=  4.6322562359D+02 Coefficients=  8.9255715314D-03
     Exponent=  1.3120019598D+02 Coefficients=  3.5727984502D-02
     Exponent=  4.2853015891D+01 Coefficients=  1.1076259931D-01
     Exponent=  1.5584185766D+01 Coefficients=  2.4295627626D-01
 S 2 1.00
     Exponent=  6.2067138508D+00 Coefficients=  4.1440263448D-01
     Exponent=  2.5764896527D+00 Coefficients=  2.3744968655D-01
 S 1 1.00
     Exponent=  5.7696339419D-01 Coefficients=  1.0000000000D+00
 S 1 1.00
     Exponent=  2.2972831358D-01 Coefficients=  1.0000000000D+00
 S 1 1.00
     Exponent=  9.5164440028D-02 Coefficients=  1.0000000000D+00
 P 4 1.00
     Exponent=  3.4697232244D+01 Coefficients=  5.3333657805D-03
     Exponent=  7.9582622826D+00 Coefficients=  3.5864109092D-02
     Exponent=  2.3780826883D+00 Coefficients=  1.4215873329D-01
     Exponent=  8.1433208183D-01 Coefficients=  3.4270471845D-01
 P 1 1.00
     Exponent=  2.8887547253D-01 Coefficients=  4.6445822433D-01
 P 1 1.00
     Exponent=  1.0056823671D-01 Coefficients=  2.4955789874D-01
 D 1 1.00
     Exponent=  1.0970000000D+00 Coefficients=  1.0000000000D+00
 D 1 1.00
     Exponent=  3.1800000000D-01 Coefficients=  1.0000000000D+00
 F 1 1.00
     Exponent=  7.6100000000D-01 Coefficients=  1.0000000000D+00
 ****
 Centers:       7      8
 S 6 1.00
     Exponent=  2.7032382631D+04 Coefficients=  2.1726302465D-04
     Exponent=  4.0523871392D+03 Coefficients=  1.6838662199D-03
     Exponent=  9.2232722710D+02 Coefficients=  8.7395616265D-03
     Exponent=  2.6124070989D+02 Coefficients=  3.5239968808D-02
     Exponent=  8.5354641351D+01 Coefficients=  1.1153519115D-01
     Exponent=  3.1035035245D+01 Coefficients=  2.5588953961D-01
 S 2 1.00
     Exponent=  1.2260860728D+01 Coefficients=  3.9768730901D-01
     Exponent=  4.9987076005D+00 Coefficients=  2.4627849430D-01
 S 1 1.00
     Exponent=  1.1703108158D+00 Coefficients=  1.0000000000D+00
 S 1 1.00
     Exponent=  4.6474740994D-01 Coefficients=  1.0000000000D+00
 S 1 1.00
     Exponent=  1.8504536357D-01 Coefficients=  1.0000000000D+00
 P 4 1.00
     Exponent=  6.3274954801D+01 Coefficients=  6.0685103418D-03
     Exponent=  1.4627049379D+01 Coefficients=  4.1912575824D-02
     Exponent=  4.4501223456D+00 Coefficients=  1.6153841088D-01
     Exponent=  1.5275799647D+00 Coefficients=  3.5706951311D-01
 P 1 1.00
     Exponent=  5.2935117943D-01 Coefficients=  4.4794207502D-01
 P 1 1.00
     Exponent=  1.7478421270D-01 Coefficients=  2.4446069663D-01
 D 1 1.00
     Exponent=  2.3140000000D+00 Coefficients=  1.0000000000D+00
 D 1 1.00
     Exponent=  6.4500000000D-01 Coefficients=  1.0000000000D+00
 F 1 1.00
     Exponent=  1.4280000000D+00 Coefficients=  1.0000000000D+00
 ****
 Ernie: Thresh=  0.10000D-02 Tol=  0.10000D-05 Strict=F.
 There are   786 symmetry adapted cartesian basis functions of A   symmetry.
 There are   692 symmetry adapted basis functions of A   symmetry.
   692 basis functions,  1054 primitive gaussians,   786 cartesian basis functions
    57 alpha electrons       57 beta electrons
       nuclear repulsion energy       999.5555150982 Hartrees.
 IExCor= 1009 DFT=T Ex+Corr=PBE1PBE ExCW=0 ScaHFX=  0.250000
 ScaDFX=  0.750000  0.750000  1.000000  1.000000 ScalE2=  1.000000  1.000000
 IRadAn=      0 IRanWt=     -1 IRanGd=            0 ICorTp=0 IEmpDi=  4
 NAtoms=   30 NActive=   30 NUniq=   30 SFac= 1.00D+00 NAtFMM=   60 NAOKFM=F Big=F
 Integral buffers will be    131072 words long.
 Raffenetti 2 integral format.
 Two-electron integral symmetry is turned on.
 Leave Link  301 at Fri May 17 10:23:52 2024, MaxMem=  6291456000 cpu:         2.9
 (Enter /home/madghost/g09/l302.exe)
 NPDir=0 NMtPBC=     1 NCelOv=     1 NCel=       1 NClECP=     1 NCelD=      1
         NCelK=      1 NCelE2=     1 NClLst=     1 CellRange=     0.0.
 One-electron integrals computed using PRISM.
 NBasis=   692 RedAO= T EigKep=  8.87D-06  NBF=   692
 NBsUse=   692 1.00D-06 EigRej= -1.00D+00 NBFU=   692
 Precomputing XC quadrature grid using
 IXCGrd= 4 IRadAn=           0 IRanWt=          -1 IRanGd=           0 AccXCQ= 0.00D+00.
 Generated NRdTot=       0 NPtTot=           0 NUsed=           0 NTot=          32
 NSgBfM=   774   774   774   774   774 MxSgAt=    30 MxSgA2=    30.
 Leave Link  302 at Fri May 17 10:23:54 2024, MaxMem=  6291456000 cpu:        53.7
 (Enter /home/madghost/g09/l303.exe)
 DipDrv:  MaxL=1.
 Leave Link  303 at Fri May 17 10:23:54 2024, MaxMem=  6291456000 cpu:         4.0
 (Enter /home/madghost/g09/l401.exe)
 ExpMin= 9.52D-02 ExpMax= 2.70D+04 ExpMxC= 9.22D+02 IAcc=2 IRadAn=         4 AccDes= 0.00D+00
 Harris functional with IExCor= 1009 and IRadAn=       4 diagonalized for initial guess.
 HarFok:  IExCor= 1009 AccDes= 0.00D+00 IRadAn=         4 IDoV= 1 UseB2=F ITyADJ=14
 ICtDFT=  3500011 ScaDFX=  1.000000  1.000000  1.000000  1.000000
 FoFCou: FMM=F IPFlag=           0 FMFlag=      100000 FMFlg1=           0
         NFxFlg=           0 DoJE=T BraDBF=F KetDBF=T FulRan=T
         wScrn=  0.000000 ICntrl=     500 IOpCl=  0 I1Cent=   200000004 NGrid=           0
         NMat0=    1 NMatS0=      1 NMatT0=    0 NMatD0=    1 NMtDS0=    0 NMtDT0=    0
 Petite list used in FoFCou.
 Harris En= -692.032590634721    
 JPrj=0 DoOrth=F DoCkMO=F.
 Leave Link  401 at Fri May 17 10:23:58 2024, MaxMem=  6291456000 cpu:        90.1
 (Enter /home/madghost/g09/l502.exe)
 Closed shell SCF:
 Using DIIS extrapolation, IDIIS=  1040.
 Integral symmetry usage will be decided dynamically.
 IVT=     1896530 IEndB=     1896530 NGot=  6291456000 MDV=  6290194693
 LenX=  6290194693 LenY=  6289576111
 Requested convergence on RMS density matrix=1.00D-08 within 128 cycles.
 Requested convergence on MAX density matrix=1.00D-06.
 Requested convergence on             energy=1.00D-06.
 No special actions if energy rises.
 Fock matrices will be formed incrementally for  20 cycles.
 Integral accuracy reduced to 1.0D-05 until final iterations.

 Cycle   1  Pass 0  IDiag  1:
 FoFJK:  IHMeth= 1 ICntrl=       0 DoSepK=F KAlg= 0 I1Cent=   0 FoldK=F
 IRaf= 760000000 NMat=   1 IRICut=       1 DoRegI=T DoRafI=F ISym2E= 0.
 FoFCou: FMM=F IPFlag=           0 FMFlag=      100000 FMFlg1=           0
         NFxFlg=           0 DoJE=F BraDBF=F KetDBF=F FulRan=T
         wScrn=  0.000000 ICntrl=       0 IOpCl=  0 I1Cent=           0 NGrid=           0
         NMat0=    1 NMatS0=      1 NMatT0=    0 NMatD0=    1 NMtDS0=    0 NMtDT0=    0
 Symmetry not used in FoFCou.
 E= -691.422005245614    
 DIIS: error= 1.90D-02 at cycle   1 NSaved=   1.
 NSaved= 1 IEnMin= 1 EnMin= -691.422005245614     IErMin= 1 ErrMin= 1.90D-02
 ErrMax= 1.90D-02  0.00D+00 EMaxC= 1.00D-01 BMatC= 3.95D-01 BMatP= 3.95D-01
 IDIUse=3 WtCom= 8.10D-01 WtEn= 1.90D-01
 Coeff-Com:  0.100D+01
 Coeff-En:   0.100D+01
 Coeff:      0.100D+01
 Gap=     0.257 Goal=   None    Shift=    0.000
 GapD=    0.257 DampG=1.000 DampE=0.500 DampFc=0.5000 IDamp=-1.
 Damping current iteration by 5.00D-01
 RMSDP=4.50D-03 MaxDP=3.85D-01              OVMax= 2.00D-01

 Cycle   2  Pass 0  IDiag  1:
 RMSU=  2.25D-03    CP:  1.01D+00
 E= -691.591718251439     Delta-E=       -0.169713005826 Rises=F Damp=T
 DIIS: error= 4.69D-03 at cycle   2 NSaved=   2.
 NSaved= 2 IEnMin= 2 EnMin= -691.591718251439     IErMin= 2 ErrMin= 4.69D-03
 ErrMax= 4.69D-03  0.00D+00 EMaxC= 1.00D-01 BMatC= 2.81D-02 BMatP= 3.95D-01
 IDIUse=3 WtCom= 9.53D-01 WtEn= 4.69D-02
 Coeff-Com: -0.880D-02 0.101D+01
 Coeff-En:   0.488D-01 0.951D+00
 Coeff:     -0.610D-02 0.101D+01
 Gap=     0.289 Goal=   None    Shift=    0.000
 RMSDP=1.38D-03 MaxDP=6.90D-02 DE=-1.70D-01 OVMax= 1.41D-01

 Cycle   3  Pass 0  IDiag  1:
 RMSU=  9.59D-04    CP:  1.02D+00  1.44D+00
 E= -691.775909445206     Delta-E=       -0.184191193766 Rises=F Damp=F
 DIIS: error= 5.98D-03 at cycle   3 NSaved=   3.
 NSaved= 3 IEnMin= 3 EnMin= -691.775909445206     IErMin= 2 ErrMin= 4.69D-03
 ErrMax= 5.98D-03  0.00D+00 EMaxC= 1.00D-01 BMatC= 1.76D-02 BMatP= 2.81D-02
 IDIUse=3 WtCom= 9.40D-01 WtEn= 5.98D-02
 Coeff-Com: -0.690D-01 0.456D+00 0.613D+00
 Coeff-En:   0.000D+00 0.000D+00 0.100D+01
 Coeff:     -0.648D-01 0.429D+00 0.636D+00
 Gap=     0.233 Goal=   None    Shift=    0.000
 RMSDP=4.81D-04 MaxDP=3.67D-02 DE=-1.84D-01 OVMax= 6.49D-02

 Cycle   4  Pass 0  IDiag  1:
 RMSU=  4.68D-04    CP:  1.01D+00  1.40D+00  1.03D+00
 E= -691.787048746139     Delta-E=       -0.011139300934 Rises=F Damp=F
 DIIS: error= 4.20D-03 at cycle   4 NSaved=   4.
 NSaved= 4 IEnMin= 4 EnMin= -691.787048746139     IErMin= 4 ErrMin= 4.20D-03
 ErrMax= 4.20D-03  0.00D+00 EMaxC= 1.00D-01 BMatC= 6.84D-03 BMatP= 1.76D-02
 IDIUse=3 WtCom= 9.58D-01 WtEn= 4.20D-02
 Coeff-Com: -0.426D-01 0.153D+00 0.413D+00 0.476D+00
 Coeff-En:   0.000D+00 0.000D+00 0.302D+00 0.698D+00
 Coeff:     -0.408D-01 0.147D+00 0.408D+00 0.485D+00
 Gap=     0.226 Goal=   None    Shift=    0.000
 RMSDP=5.05D-04 MaxDP=4.05D-02 DE=-1.11D-02 OVMax= 2.82D-02

 Cycle   5  Pass 0  IDiag  1:
 RMSU=  2.11D-04    CP:  1.02D+00  1.59D+00  1.18D+00  8.21D-01
 E= -691.794046723970     Delta-E=       -0.006997977831 Rises=F Damp=F
 DIIS: error= 5.11D-04 at cycle   5 NSaved=   5.
 NSaved= 5 IEnMin= 5 EnMin= -691.794046723970     IErMin= 5 ErrMin= 5.11D-04
 ErrMax= 5.11D-04  0.00D+00 EMaxC= 1.00D-01 BMatC= 2.02D-04 BMatP= 6.84D-03
 IDIUse=3 WtCom= 9.95D-01 WtEn= 5.11D-03
 Coeff-Com: -0.120D-01 0.283D-01 0.121D+00 0.217D+00 0.646D+00
 Coeff-En:   0.000D+00 0.000D+00 0.000D+00 0.000D+00 0.100D+01
 Coeff:     -0.120D-01 0.281D-01 0.120D+00 0.216D+00 0.648D+00
 Gap=     0.226 Goal=   None    Shift=    0.000
 RMSDP=1.24D-04 MaxDP=7.10D-03 DE=-7.00D-03 OVMax= 3.80D-03

 Cycle   6  Pass 0  IDiag  1:
 RMSU=  7.33D-05    CP:  1.02D+00  1.62D+00  1.22D+00  8.80D-01  1.22D+00
 E= -691.794236035281     Delta-E=       -0.000189311311 Rises=F Damp=F
 DIIS: error= 1.17D-04 at cycle   6 NSaved=   6.
 NSaved= 6 IEnMin= 6 EnMin= -691.794236035281     IErMin= 6 ErrMin= 1.17D-04
 ErrMax= 1.17D-04  0.00D+00 EMaxC= 1.00D-01 BMatC= 1.55D-05 BMatP= 2.02D-04
 IDIUse=3 WtCom= 9.99D-01 WtEn= 1.17D-03
 Coeff-Com: -0.458D-02 0.827D-02 0.462D-01 0.938D-01 0.340D+00 0.516D+00
 Coeff-En:   0.000D+00 0.000D+00 0.000D+00 0.000D+00 0.000D+00 0.100D+01
 Coeff:     -0.457D-02 0.827D-02 0.461D-01 0.937D-01 0.340D+00 0.517D+00
 Gap=     0.226 Goal=   None    Shift=    0.000
 RMSDP=4.32D-05 MaxDP=1.87D-03 DE=-1.89D-04 OVMax= 9.68D-04

 Cycle   7  Pass 0  IDiag  1:
 RMSU=  2.73D-05    CP:  1.02D+00  1.62D+00  1.22D+00  8.51D-01  1.20D+00
                    CP:  1.39D+00
 E= -691.794251826547     Delta-E=       -0.000015791266 Rises=F Damp=F
 DIIS: error= 3.72D-05 at cycle   7 NSaved=   7.
 NSaved= 7 IEnMin= 7 EnMin= -691.794251826547     IErMin= 7 ErrMin= 3.72D-05
 ErrMax= 3.72D-05  0.00D+00 EMaxC= 1.00D-01 BMatC= 8.46D-07 BMatP= 1.55D-05
 IDIUse=1 WtCom= 1.00D+00 WtEn= 0.00D+00
 Coeff-Com: -0.842D-03 0.907D-03 0.880D-02 0.197D-01 0.885D-01 0.224D+00
 Coeff-Com:  0.659D+00
 Coeff:     -0.842D-03 0.907D-03 0.880D-02 0.197D-01 0.885D-01 0.224D+00
 Coeff:      0.659D+00
 Gap=     0.226 Goal=   None    Shift=    0.000
 RMSDP=7.30D-05 MaxDP=4.27D-03 DE=-1.58D-05 OVMax= 4.09D-04

 Cycle   8  Pass 0  IDiag  1:
 RMSU=  1.63D-05    CP:  1.02D+00  1.61D+00  1.18D+00  7.86D-01  1.06D+00
                    CP:  1.69D+00  2.13D+00
 E= -691.794255842617     Delta-E=       -0.000004016070 Rises=F Damp=F
 DIIS: error= 2.14D-05 at cycle   8 NSaved=   8.
 NSaved= 8 IEnMin= 8 EnMin= -691.794255842617     IErMin= 8 ErrMin= 2.14D-05
 ErrMax= 2.14D-05  0.00D+00 EMaxC= 1.00D-01 BMatC= 2.93D-07 BMatP= 8.46D-07
 IDIUse=1 WtCom= 1.00D+00 WtEn= 0.00D+00
 Coeff-Com:  0.295D-04-0.416D-03-0.698D-04 0.643D-03 0.140D-01 0.737D-01
 Coeff-Com:  0.403D+00 0.509D+00
 Coeff:      0.295D-04-0.416D-03-0.698D-04 0.643D-03 0.140D-01 0.737D-01
 Coeff:      0.403D+00 0.509D+00
 Gap=     0.226 Goal=   None    Shift=    0.000
 RMSDP=6.83D-05 MaxDP=3.84D-03 DE=-4.02D-06 OVMax= 1.84D-04

 Cycle   9  Pass 0  IDiag  1:
 RMSU=  1.01D-05    CP:  1.02D+00  1.59D+00  1.15D+00  7.32D-01  9.21D-01
                    CP:  1.79D+00  2.94D+00  2.09D+00
 E= -691.794259097062     Delta-E=       -0.000003254446 Rises=F Damp=F
 DIIS: error= 2.30D-05 at cycle   9 NSaved=   9.
 NSaved= 9 IEnMin= 9 EnMin= -691.794259097062     IErMin= 8 ErrMin= 2.14D-05
 ErrMax= 2.30D-05  0.00D+00 EMaxC= 1.00D-01 BMatC= 7.83D-08 BMatP= 2.93D-07
 IDIUse=1 WtCom= 1.00D+00 WtEn= 0.00D+00
 Coeff-Com:  0.910D-05-0.260D-03 0.575D-04 0.609D-03 0.102D-01 0.489D-01
 Coeff-Com:  0.261D+00 0.346D+00 0.333D+00
 Coeff:      0.910D-05-0.260D-03 0.575D-04 0.609D-03 0.102D-01 0.489D-01
 Coeff:      0.261D+00 0.346D+00 0.333D+00
 Gap=     0.226 Goal=   None    Shift=    0.000
 RMSDP=3.92D-05 MaxDP=2.03D-03 DE=-3.25D-06 OVMax= 2.71D-05

 Cycle  10  Pass 0  IDiag  1:
 RMSU=  9.66D-06    CP:  1.02D+00  1.58D+00  1.14D+00  7.05D-01  8.49D-01
                    CP:  1.83D+00  3.00D+00  2.82D+00  2.12D+00
 E= -691.794259876292     Delta-E=       -0.000000779229 Rises=F Damp=F
 DIIS: error= 2.87D-05 at cycle  10 NSaved=  10.
 NSaved=10 IEnMin=10 EnMin= -691.794259876292     IErMin= 8 ErrMin= 2.14D-05
 ErrMax= 2.87D-05  0.00D+00 EMaxC= 1.00D-01 BMatC= 1.11D-07 BMatP= 7.83D-08
 IDIUse=1 WtCom= 1.00D+00 WtEn= 0.00D+00
 Coeff-Com:  0.749D-04-0.331D-03-0.615D-03-0.955D-03 0.401D-02 0.340D-01
 Coeff-Com:  0.231D+00 0.410D+00 0.159D+01-0.127D+01
 Coeff:      0.749D-04-0.331D-03-0.615D-03-0.955D-03 0.401D-02 0.340D-01
 Coeff:      0.231D+00 0.410D+00 0.159D+01-0.127D+01
 Gap=     0.226 Goal=   None    Shift=    0.000
 RMSDP=6.27D-05 MaxDP=3.05D-03 DE=-7.79D-07 OVMax= 4.87D-05

 Cycle  11  Pass 0  IDiag  1:
 RMSU=  1.67D-05    CP:  1.02D+00  1.60D+00  1.16D+00  7.31D-01  9.20D-01
                    CP:  1.76D+00  2.88D+00  1.57D+00 -7.77D-01 -4.47D-01
 E= -691.794259390322     Delta-E=        0.000000485969 Rises=F Damp=F
 DIIS: error= 1.65D-05 at cycle  11 NSaved=  11.
 NSaved=11 IEnMin=10 EnMin= -691.794259876292     IErMin=11 ErrMin= 1.65D-05
 ErrMax= 1.65D-05  0.00D+00 EMaxC= 1.00D-01 BMatC= 5.16D-08 BMatP= 7.83D-08
 IDIUse=1 WtCom= 1.00D+00 WtEn= 0.00D+00
 Coeff-Com:  0.302D-04-0.169D-03-0.269D-03-0.436D-03 0.283D-02 0.184D-01
 Coeff-Com:  0.120D+00 0.241D+00 0.139D+01-0.157D+01 0.792D+00
 Coeff:      0.302D-04-0.169D-03-0.269D-03-0.436D-03 0.283D-02 0.184D-01
 Coeff:      0.120D+00 0.241D+00 0.139D+01-0.157D+01 0.792D+00
 Gap=     0.226 Goal=   None    Shift=    0.000
 RMSDP=8.32D-05 MaxDP=5.54D-03 DE= 4.86D-07 OVMax= 5.57D-05

 Cycle  12  Pass 0  IDiag  1:
 RMSU=  1.75D-05    CP:  1.02D+00  1.63D+00  1.18D+00  7.72D-01  1.01D+00
                    CP:  1.53D+00  2.44D+00  1.45D+00 -2.38D+00 -1.14D+00
                    CP:  2.08D+00
 E= -691.794258089172     Delta-E=        0.000001301150 Rises=F Damp=F
 DIIS: error= 1.31D-05 at cycle  12 NSaved=  12.
 NSaved=12 IEnMin=10 EnMin= -691.794259876292     IErMin=12 ErrMin= 1.31D-05
 ErrMax= 1.31D-05  0.00D+00 EMaxC= 1.00D-01 BMatC= 4.91D-08 BMatP= 5.16D-08
 IDIUse=1 WtCom= 1.00D+00 WtEn= 0.00D+00
 Coeff-Com:  0.386D-04-0.203D-03-0.305D-03-0.437D-03 0.343D-02 0.232D-01
 Coeff-Com:  0.146D+00 0.255D+00 0.114D+01-0.126D+01 0.368D+00 0.328D+00
 Coeff:      0.386D-04-0.203D-03-0.305D-03-0.437D-03 0.343D-02 0.232D-01
 Coeff:      0.146D+00 0.255D+00 0.114D+01-0.126D+01 0.368D+00 0.328D+00
 Gap=     0.226 Goal=   None    Shift=    0.000
 RMSDP=6.22D-05 MaxDP=3.74D-03 DE= 1.30D-06 OVMax= 3.28D-05

 Problem detected with inexpensive integrals.
 Switching to full accuracy and repeating last cycle.
 Cycle  13  Pass 1  IDiag  1:
 E= -691.794334478366     Delta-E=       -0.000076389194 Rises=F Damp=F
 DIIS: error= 6.98D-04 at cycle   1 NSaved=   1.
 NSaved= 1 IEnMin= 1 EnMin= -691.794334478366     IErMin= 1 ErrMin= 6.98D-04
 ErrMax= 6.98D-04  0.00D+00 EMaxC= 1.00D-01 BMatC= 6.73D-05 BMatP= 6.73D-05
 IDIUse=3 WtCom= 9.93D-01 WtEn= 6.98D-03
 Coeff-Com:  0.100D+01
 Coeff-En:   0.100D+01
 Coeff:      0.100D+01
 Gap=     0.226 Goal=   None    Shift=    0.000
 RMSDP=3.34D-03 MaxDP=2.05D-01 DE=-7.64D-05 OVMax= 2.67D-03

 Cycle  14  Pass 1  IDiag  1:
 RMSU=  2.74D-03    CP:  7.21D-01
 E= -691.794397534756     Delta-E=       -0.000063056390 Rises=F Damp=F
 DIIS: error= 1.67D-05 at cycle   2 NSaved=   2.
 NSaved= 2 IEnMin= 2 EnMin= -691.794397534756     IErMin= 2 ErrMin= 1.67D-05
 ErrMax= 1.67D-05  0.00D+00 EMaxC= 1.00D-01 BMatC= 2.93D-08 BMatP= 6.73D-05
 IDIUse=1 WtCom= 1.00D+00 WtEn= 0.00D+00
 Coeff-Com: -0.121D-01 0.101D+01
 Coeff:     -0.121D-01 0.101D+01
 Gap=     0.226 Goal=   None    Shift=    0.000
 RMSDP=4.62D-05 MaxDP=1.70D-03 DE=-6.31D-05 OVMax= 9.74D-05

 Cycle  15  Pass 1  IDiag  1:
 RMSU=  2.83D-05    CP:  7.18D-01  1.01D+00
 E= -691.794397565423     Delta-E=       -0.000000030667 Rises=F Damp=F
 DIIS: error= 3.40D-06 at cycle   3 NSaved=   3.
 NSaved= 3 IEnMin= 3 EnMin= -691.794397565423     IErMin= 3 ErrMin= 3.40D-06
 ErrMax= 3.40D-06  0.00D+00 EMaxC= 1.00D-01 BMatC= 1.38D-08 BMatP= 2.93D-08
 IDIUse=1 WtCom= 1.00D+00 WtEn= 0.00D+00
 Coeff-Com: -0.557D-02 0.449D+00 0.557D+00
 Coeff:     -0.557D-02 0.449D+00 0.557D+00
 Gap=     0.226 Goal=   None    Shift=    0.000
 RMSDP=6.99D-07 MaxDP=3.23D-05 DE=-3.07D-08 OVMax= 5.28D-05

 Cycle  16  Pass 1  IDiag  1:
 RMSU=  3.33D-07    CP:  7.18D-01  1.01D+00  1.02D+00
 E= -691.794397576172     Delta-E=       -0.000000010750 Rises=F Damp=F
 DIIS: error= 2.00D-06 at cycle   4 NSaved=   4.
 NSaved= 4 IEnMin= 4 EnMin= -691.794397576172     IErMin= 4 ErrMin= 2.00D-06
 ErrMax= 2.00D-06  0.00D+00 EMaxC= 1.00D-01 BMatC= 3.02D-09 BMatP= 1.38D-08
 IDIUse=1 WtCom= 1.00D+00 WtEn= 0.00D+00
 Coeff-Com: -0.637D-03 0.438D-01 0.316D+00 0.641D+00
 Coeff:     -0.637D-03 0.438D-01 0.316D+00 0.641D+00
 Gap=     0.226 Goal=   None    Shift=    0.000
 RMSDP=5.15D-07 MaxDP=2.60D-05 DE=-1.07D-08 OVMax= 2.50D-05

 Cycle  17  Pass 1  IDiag  1:
 RMSU=  1.83D-07    CP:  7.17D-01  1.01D+00  1.03D+00  1.45D+00
 E= -691.794397578887     Delta-E=       -0.000000002714 Rises=F Damp=F
 DIIS: error= 6.45D-07 at cycle   5 NSaved=   5.
 NSaved= 5 IEnMin= 5 EnMin= -691.794397578887     IErMin= 5 ErrMin= 6.45D-07
 ErrMax= 6.45D-07  0.00D+00 EMaxC= 1.00D-01 BMatC= 3.57D-10 BMatP= 3.02D-09
 IDIUse=1 WtCom= 1.00D+00 WtEn= 0.00D+00
 Coeff-Com:  0.744D-04-0.107D-01 0.137D+00 0.367D+00 0.506D+00
 Coeff:      0.744D-04-0.107D-01 0.137D+00 0.367D+00 0.506D+00
 Gap=     0.226 Goal=   None    Shift=    0.000
 RMSDP=9.36D-08 MaxDP=4.16D-06 DE=-2.71D-09 OVMax= 6.73D-06

 Cycle  18  Pass 1  IDiag  1:
 RMSU=  3.84D-08    CP:  7.17D-01  1.01D+00  1.03D+00  1.57D+00  1.04D+00
 E= -691.794397579205     Delta-E=       -0.000000000318 Rises=F Damp=F
 DIIS: error= 1.19D-07 at cycle   6 NSaved=   6.
 NSaved= 6 IEnMin= 6 EnMin= -691.794397579205     IErMin= 6 ErrMin= 1.19D-07
 ErrMax= 1.19D-07  0.00D+00 EMaxC= 1.00D-01 BMatC= 2.22D-11 BMatP= 3.57D-10
 IDIUse=1 WtCom= 1.00D+00 WtEn= 0.00D+00
 Coeff-Com:  0.852D-04-0.887D-02 0.519D-01 0.153D+00 0.273D+00 0.531D+00
 Coeff:      0.852D-04-0.887D-02 0.519D-01 0.153D+00 0.273D+00 0.531D+00
 Gap=     0.226 Goal=   None    Shift=    0.000
 RMSDP=1.95D-08 MaxDP=1.45D-06 DE=-3.18D-10 OVMax= 1.48D-06

 Cycle  19  Pass 1  IDiag  1:
 RMSU=  1.18D-08    CP:  7.17D-01  1.01D+00  1.03D+00  1.58D+00  1.08D+00
                    CP:  8.20D-01
 E= -691.794397579194     Delta-E=        0.000000000011 Rises=F Damp=F
 DIIS: error= 3.15D-08 at cycle   7 NSaved=   7.
 NSaved= 7 IEnMin= 6 EnMin= -691.794397579205     IErMin= 7 ErrMin= 3.15D-08
 ErrMax= 3.15D-08  0.00D+00 EMaxC= 1.00D-01 BMatC= 2.20D-12 BMatP= 2.22D-11
 IDIUse=1 WtCom= 1.00D+00 WtEn= 0.00D+00
 Coeff-Com:  0.423D-04-0.411D-02 0.167D-01 0.521D-01 0.106D+00 0.297D+00
 Coeff-Com:  0.532D+00
 Coeff:      0.423D-04-0.411D-02 0.167D-01 0.521D-01 0.106D+00 0.297D+00
 Coeff:      0.532D+00
 Gap=     0.226 Goal=   None    Shift=    0.000
 RMSDP=5.48D-09 MaxDP=5.08D-07 DE= 1.11D-11 OVMax= 3.06D-07

 SCF Done:  E(RPBE1PBE) =  -691.794397579     A.U. after   19 cycles
            NFock= 19  Conv=0.55D-08     -V/T= 2.0047
 KE= 6.885840105221D+02 PE=-3.610397308705D+03 EE= 1.230463385506D+03
 Leave Link  502 at Fri May 17 10:32:54 2024, MaxMem=  6291456000 cpu:     12843.7
 (Enter /home/madghost/g09/l601.exe)
 Copying SCF densities to generalized density rwf, IOpCl= 0 IROHF=0.

 **********************************************************************

            Population analysis using the SCF density.

 **********************************************************************

 Orbital symmetries:
       Occupied  (A) (A) (A) (A) (A) (A) (A) (A) (A) (A) (A) (A)
                 (A) (A) (A) (A) (A) (A) (A) (A) (A) (A) (A) (A)
                 (A) (A) (A) (A) (A) (A) (A) (A) (A) (A) (A) (A)
                 (A) (A) (A) (A) (A) (A) (A) (A) (A) (A) (A) (A)
                 (A) (A) (A) (A) (A) (A) (A) (A) (A)
       Virtual   (A) (A) (A) (A) (A) (A) (A) (A) (A) (A) (A) (A)
                 (A) (A) (A) (A) (A) (A) (A) (A) (A) (A) (A) (A)
                 (A) (A) (A) (A) (A) (A) (A) (A) (A) (A) (A) (A)
                 (A) (A) (A) (A) (A) (A) (A) (A) (A) (A) (A) (A)
                 (A) (A) (A) (A) (A) (A) (A) (A) (A) (A) (A) (A)
                 (A) (A) (A) (A) (A) (A) (A) (A) (A) (A) (A) (A)
                 (A) (A) (A) (A) (A) (A) (A) (A) (A) (A) (A) (A)
                 (A) (A) (A) (A) (A) (A) (A) (A) (A) (A) (A) (A)
                 (A) (A) (A) (A) (A) (A) (A) (A) (A) (A) (A) (A)
                 (A) (A) (A) (A) (A) (A) (A) (A) (A) (A) (A) (A)
                 (A) (A) (A) (A) (A) (A) (A) (A) (A) (A) (A) (A)
                 (A) (A) (A) (A) (A) (A) (A) (A) (A) (A) (A) (A)
                 (A) (A) (A) (A) (A) (A) (A) (A) (A) (A) (A) (A)
                 (A) (A) (A) (A) (A) (A) (A) (A) (A) (A) (A) (A)
                 (A) (A) (A) (A) (A) (A) (A) (A) (A) (A) (A) (A)
                 (A) (A) (A) (A) (A) (A) (A) (A) (A) (A) (A) (A)
                 (A) (A) (A) (A) (A) (A) (A) (A) (A) (A) (A) (A)
                 (A) (A) (A) (A) (A) (A) (A) (A) (A) (A) (A) (A)
                 (A) (A) (A) (A) (A) (A) (A) (A) (A) (A) (A) (A)
                 (A) (A) (A) (A) (A) (A) (A) (A) (A) (A) (A) (A)
                 (A) (A) (A) (A) (A) (A) (A) (A) (A) (A) (A) (A)
                 (A) (A) (A) (A) (A) (A) (A) (A) (A) (A) (A) (A)
                 (A) (A) (A) (A) (A) (A) (A) (A) (A) (A) (A) (A)
                 (A) (A) (A) (A) (A) (A) (A) (A) (A) (A) (A) (A)
                 (A) (A) (A) (A) (A) (A) (A) (A) (A) (A) (A) (A)
                 (A) (A) (A) (A) (A) (A) (A) (A) (A) (A) (A) (A)
                 (A) (A) (A) (A) (A) (A) (A) (A) (A) (A) (A) (A)
                 (A) (A) (A) (A) (A) (A) (A) (A) (A) (A) (A) (A)
                 (A) (A) (A) (A) (A) (A) (A) (A) (A) (A) (A) (A)
                 (A) (A) (A) (A) (A) (A) (A) (A) (A) (A) (A) (A)
                 (A) (A) (A) (A) (A) (A) (A) (A) (A) (A) (A) (A)
                 (A) (A) (A) (A) (A) (A) (A) (A) (A) (A) (A) (A)
                 (A) (A) (A) (A) (A) (A) (A) (A) (A) (A) (A) (A)
                 (A) (A) (A) (A) (A) (A) (A) (A) (A) (A) (A) (A)
                 (A) (A) (A) (A) (A) (A) (A) (A) (A) (A) (A) (A)
                 (A) (A) (A) (A) (A) (A) (A) (A) (A) (A) (A) (A)
                 (A) (A) (A) (A) (A) (A) (A) (A) (A) (A) (A) (A)
                 (A) (A) (A) (A) (A) (A) (A) (A) (A) (A) (A) (A)
                 (A) (A) (A) (A) (A) (A) (A) (A) (A) (A) (A) (A)
                 (A) (A) (A) (A) (A) (A) (A) (A) (A) (A) (A) (A)
                 (A) (A) (A) (A) (A) (A) (A) (A) (A) (A) (A) (A)
                 (A) (A) (A) (A) (A) (A) (A) (A) (A) (A) (A) (A)
                 (A) (A) (A) (A) (A) (A) (A) (A) (A) (A) (A) (A)
                 (A) (A) (A) (A) (A) (A) (A) (A) (A) (A) (A) (A)
                 (A) (A) (A) (A) (A) (A) (A) (A) (A) (A) (A) (A)
                 (A) (A) (A) (A) (A) (A) (A) (A) (A) (A) (A) (A)
                 (A) (A) (A) (A) (A) (A) (A) (A) (A) (A) (A) (A)
                 (A) (A) (A) (A) (A) (A) (A) (A) (A) (A) (A) (A)
                 (A) (A) (A) (A) (A) (A) (A) (A) (A) (A) (A) (A)
                 (A) (A) (A) (A) (A) (A) (A) (A) (A) (A) (A) (A)
                 (A) (A) (A) (A) (A) (A) (A) (A) (A) (A) (A) (A)
                 (A) (A) (A) (A) (A) (A) (A) (A) (A) (A) (A) (A)
                 (A) (A) (A) (A) (A) (A) (A) (A) (A) (A) (A)
 The electronic state is 1-A.
 Alpha  occ. eigenvalues --  -19.24312 -19.24247 -10.28827 -10.28665 -10.28635
 Alpha  occ. eigenvalues --  -10.28618 -10.22999 -10.22805 -10.22797 -10.22749
 Alpha  occ. eigenvalues --  -10.22675 -10.22501 -10.22135 -10.22062 -10.21992
 Alpha  occ. eigenvalues --  -10.21862  -1.11505  -1.10145  -0.88591  -0.88195
 Alpha  occ. eigenvalues --   -0.81758  -0.77672  -0.77430  -0.76985  -0.74553
 Alpha  occ. eigenvalues --   -0.68434  -0.63520  -0.63111  -0.62205  -0.60055
 Alpha  occ. eigenvalues --   -0.57064  -0.55277  -0.52475  -0.50912  -0.50565
 Alpha  occ. eigenvalues --   -0.49459  -0.48245  -0.46994  -0.45950  -0.45047
 Alpha  occ. eigenvalues --   -0.43902  -0.43524  -0.42958  -0.40639  -0.39565
 Alpha  occ. eigenvalues --   -0.38952  -0.37918  -0.37347  -0.37061  -0.34963
 Alpha  occ. eigenvalues --   -0.34378  -0.33789  -0.33495  -0.27080  -0.26914
 Alpha  occ. eigenvalues --   -0.23998  -0.23590
 Alpha virt. eigenvalues --   -0.00977  -0.00786   0.00534   0.00832   0.03957
 Alpha virt. eigenvalues --    0.06061   0.06420   0.07783   0.08404   0.09411
 Alpha virt. eigenvalues --    0.09807   0.10090   0.10732   0.11177   0.11703
 Alpha virt. eigenvalues --    0.12327   0.12860   0.13515   0.14412   0.15096
 Alpha virt. eigenvalues --    0.15858   0.15971   0.16693   0.18256   0.19053
 Alpha virt. eigenvalues --    0.20325   0.21082   0.21547   0.22228   0.22386
 Alpha virt. eigenvalues --    0.22591   0.22833   0.23518   0.24214   0.24302
 Alpha virt. eigenvalues --    0.24534   0.25267   0.25618   0.26208   0.26633
 Alpha virt. eigenvalues --    0.27661   0.28574   0.29344   0.29635   0.29997
 Alpha virt. eigenvalues --    0.30670   0.32216   0.32492   0.33161   0.33256
 Alpha virt. eigenvalues --    0.34392   0.35286   0.36276   0.36347   0.36616
 Alpha virt. eigenvalues --    0.37009   0.37688   0.38056   0.38897   0.39234
 Alpha virt. eigenvalues --    0.39989   0.40442   0.41198   0.41624   0.41885
 Alpha virt. eigenvalues --    0.42079   0.42800   0.43279   0.43589   0.44199
 Alpha virt. eigenvalues --    0.44354   0.44695   0.45527   0.45716   0.46914
 Alpha virt. eigenvalues --    0.47346   0.47432   0.47818   0.48495   0.49924
 Alpha virt. eigenvalues --    0.50065   0.50536   0.50707   0.50867   0.51374
 Alpha virt. eigenvalues --    0.51678   0.52515   0.53343   0.53775   0.55023
 Alpha virt. eigenvalues --    0.57013   0.57842   0.58670   0.59617   0.61342
 Alpha virt. eigenvalues --    0.62475   0.62895   0.65223   0.65480   0.65765
 Alpha virt. eigenvalues --    0.66565   0.67562   0.67797   0.68430   0.68708
 Alpha virt. eigenvalues --    0.69773   0.69867   0.70785   0.70957   0.71500
 Alpha virt. eigenvalues --    0.72036   0.72957   0.73883   0.74417   0.74683
 Alpha virt. eigenvalues --    0.76245   0.76875   0.77520   0.77789   0.79100
 Alpha virt. eigenvalues --    0.79826   0.80886   0.82057   0.82687   0.83068
 Alpha virt. eigenvalues --    0.84538   0.84820   0.85911   0.86439   0.88085
 Alpha virt. eigenvalues --    0.88551   0.89058   0.90004   0.91480   0.92415
 Alpha virt. eigenvalues --    0.94656   0.94903   0.95621   0.96028   0.96749
 Alpha virt. eigenvalues --    0.98017   0.98320   0.98939   0.99485   0.99724
 Alpha virt. eigenvalues --    1.00694   1.01395   1.02195   1.02626   1.03276
 Alpha virt. eigenvalues --    1.05032   1.05246   1.05758   1.06498   1.08102
 Alpha virt. eigenvalues --    1.09363   1.10303   1.11479   1.11881   1.12642
 Alpha virt. eigenvalues --    1.13222   1.13537   1.14270   1.15168   1.16610
 Alpha virt. eigenvalues --    1.17441   1.17599   1.19385   1.19992   1.20333
 Alpha virt. eigenvalues --    1.21294   1.22063   1.22688   1.23662   1.23838
 Alpha virt. eigenvalues --    1.24385   1.25469   1.26219   1.28423   1.29247
 Alpha virt. eigenvalues --    1.29940   1.31063   1.31252   1.32094   1.32858
 Alpha virt. eigenvalues --    1.33271   1.33472   1.34148   1.34590   1.35058
 Alpha virt. eigenvalues --    1.35984   1.37600   1.37942   1.38308   1.39468
 Alpha virt. eigenvalues --    1.39738   1.40509   1.41627   1.42683   1.43979
 Alpha virt. eigenvalues --    1.44810   1.44912   1.46369   1.48109   1.48180
 Alpha virt. eigenvalues --    1.49091   1.49575   1.50112   1.50358   1.51776
 Alpha virt. eigenvalues --    1.52077   1.53655   1.54609   1.55306   1.56114
 Alpha virt. eigenvalues --    1.57059   1.58182   1.59137   1.60457   1.60529
 Alpha virt. eigenvalues --    1.60898   1.61410   1.61878   1.62256   1.64672
 Alpha virt. eigenvalues --    1.66474   1.67615   1.68299   1.68675   1.69371
 Alpha virt. eigenvalues --    1.70307   1.71018   1.72174   1.73178   1.74771
 Alpha virt. eigenvalues --    1.75379   1.77660   1.80998   1.81162   1.83964
 Alpha virt. eigenvalues --    1.85628   1.85969   1.87210   1.89320   1.91701
 Alpha virt. eigenvalues --    1.93091   1.93547   1.94876   1.96271   1.97828
 Alpha virt. eigenvalues --    1.98158   1.99081   1.99969   2.00932   2.01957
 Alpha virt. eigenvalues --    2.02203   2.02833   2.05819   2.06735   2.07163
 Alpha virt. eigenvalues --    2.08117   2.10351   2.12397   2.15333   2.16347
 Alpha virt. eigenvalues --    2.17427   2.19020   2.21282   2.23700   2.25628
 Alpha virt. eigenvalues --    2.26879   2.27632   2.28987   2.29323   2.30233
 Alpha virt. eigenvalues --    2.33145   2.34248   2.35437   2.37279   2.37509
 Alpha virt. eigenvalues --    2.38603   2.38879   2.39268   2.39451   2.41386
 Alpha virt. eigenvalues --    2.44951   2.45595   2.48171   2.50338   2.51816
 Alpha virt. eigenvalues --    2.52441   2.53597   2.58278   2.59326   2.61466
 Alpha virt. eigenvalues --    2.62943   2.63563   2.64947   2.66226   2.66798
 Alpha virt. eigenvalues --    2.67569   2.69520   2.69812   2.70982   2.72313
 Alpha virt. eigenvalues --    2.73338   2.74414   2.75104   2.75562   2.77202
 Alpha virt. eigenvalues --    2.77982   2.78688   2.78990   2.79611   2.80090
 Alpha virt. eigenvalues --    2.81045   2.82162   2.82859   2.84011   2.84397
 Alpha virt. eigenvalues --    2.84827   2.85350   2.86544   2.86892   2.89383
 Alpha virt. eigenvalues --    2.90121   2.91338   2.91761   2.92185   2.92687
 Alpha virt. eigenvalues --    2.93083   2.93979   2.95535   2.96490   2.97636
 Alpha virt. eigenvalues --    2.98236   2.99231   3.00696   3.02486   3.03390
 Alpha virt. eigenvalues --    3.03668   3.04475   3.04594   3.05139   3.05942
 Alpha virt. eigenvalues --    3.06150   3.06565   3.06818   3.07624   3.07904
 Alpha virt. eigenvalues --    3.08272   3.09505   3.09888   3.10544   3.11987
 Alpha virt. eigenvalues --    3.12678   3.13713   3.14146   3.15253   3.15785
 Alpha virt. eigenvalues --    3.16241   3.16585   3.16863   3.17632   3.19031
 Alpha virt. eigenvalues --    3.19514   3.20436   3.20932   3.21319   3.22341
 Alpha virt. eigenvalues --    3.23179   3.23913   3.25813   3.26586   3.27269
 Alpha virt. eigenvalues --    3.28029   3.28300   3.29984   3.30733   3.31391
 Alpha virt. eigenvalues --    3.32181   3.33396   3.33694   3.34225   3.34304
 Alpha virt. eigenvalues --    3.34589   3.35248   3.35996   3.36475   3.37124
 Alpha virt. eigenvalues --    3.38000   3.38611   3.39508   3.39860   3.41759
 Alpha virt. eigenvalues --    3.42169   3.42452   3.43026   3.43351   3.44508
 Alpha virt. eigenvalues --    3.46776   3.48347   3.48848   3.48988   3.49983
 Alpha virt. eigenvalues --    3.51089   3.51407   3.52725   3.53811   3.54805
 Alpha virt. eigenvalues --    3.55284   3.55504   3.56864   3.58612   3.60064
 Alpha virt. eigenvalues --    3.60454   3.61265   3.62590   3.65067   3.65597
 Alpha virt. eigenvalues --    3.66736   3.67460   3.68900   3.69252   3.70354
 Alpha virt. eigenvalues --    3.72324   3.73721   3.75560   3.75847   3.77286
 Alpha virt. eigenvalues --    3.77800   3.78604   3.78803   3.78877   3.79474
 Alpha virt. eigenvalues --    3.79542   3.80065   3.80500   3.82224   3.82414
 Alpha virt. eigenvalues --    3.83234   3.83603   3.84017   3.84392   3.85002
 Alpha virt. eigenvalues --    3.85897   3.86205   3.87110   3.88113   3.88961
 Alpha virt. eigenvalues --    3.89269   3.91022   3.91591   3.92639   3.92913
 Alpha virt. eigenvalues --    3.94171   3.97598   3.98766   3.99841   4.01513
 Alpha virt. eigenvalues --    4.01804   4.03574   4.03817   4.05682   4.05783
 Alpha virt. eigenvalues --    4.07691   4.08878   4.09564   4.10984   4.11156
 Alpha virt. eigenvalues --    4.12370   4.13364   4.13861   4.16001   4.17300
 Alpha virt. eigenvalues --    4.18427   4.18908   4.19603   4.20662   4.21589
 Alpha virt. eigenvalues --    4.22576   4.23515   4.23601   4.24346   4.25098
 Alpha virt. eigenvalues --    4.25939   4.26482   4.27027   4.27256   4.28525
 Alpha virt. eigenvalues --    4.28618   4.29230   4.30137   4.32470   4.32869
 Alpha virt. eigenvalues --    4.33288   4.34568   4.34762   4.36675   4.37655
 Alpha virt. eigenvalues --    4.37952   4.41107   4.41223   4.43837   4.46020
 Alpha virt. eigenvalues --    4.46357   4.50411   4.51981   4.53040   4.53941
 Alpha virt. eigenvalues --    4.56457   4.57171   4.58632   4.59962   4.62601
 Alpha virt. eigenvalues --    4.64951   4.66166   4.66815   4.67203   4.68425
 Alpha virt. eigenvalues --    4.68700   4.69263   4.70598   4.71006   4.71317
 Alpha virt. eigenvalues --    4.72928   4.74841   4.75773   4.76885   4.78061
 Alpha virt. eigenvalues --    4.78654   4.79646   4.80156   4.80849   4.82179
 Alpha virt. eigenvalues --    4.82266   4.83873   4.85500   4.86991   4.87813
 Alpha virt. eigenvalues --    4.88429   4.88631   4.93911   4.97573   4.98667
 Alpha virt. eigenvalues --    4.99420   5.00665   5.00914   5.02015   5.04068
 Alpha virt. eigenvalues --    5.07487   5.09221   5.10341   5.12404   5.14081
 Alpha virt. eigenvalues --    5.16611   5.21460   5.22128   5.22918   5.23476
 Alpha virt. eigenvalues --    5.29880   5.30973   5.32308   5.33325   5.34277
 Alpha virt. eigenvalues --    5.35955   5.36300   5.36878   5.37456   5.39757
 Alpha virt. eigenvalues --    5.39947   5.41455   5.42538   5.44831   5.45140
 Alpha virt. eigenvalues --    5.47529   5.49165   5.52001   5.56346   5.58104
 Alpha virt. eigenvalues --    5.61072   5.62442   5.63652   5.65384   5.66434
 Alpha virt. eigenvalues --    5.69976   5.71889   5.73759   5.75787   5.81643
 Alpha virt. eigenvalues --    5.81964   5.91687   5.92914   5.95997   5.97388
 Alpha virt. eigenvalues --    5.99607   6.02420   6.08587   6.12758   6.15165
 Alpha virt. eigenvalues --    6.16843   6.29263   6.31337   6.48493   6.51782
 Alpha virt. eigenvalues --    6.52412   6.61097   6.76327   6.79407   6.84354
 Alpha virt. eigenvalues --    6.87639   6.95762   6.95816   7.00364   7.05651
 Alpha virt. eigenvalues --    7.36388   7.41470   7.54161   7.55178  22.68985
 Alpha virt. eigenvalues --   22.73431  23.19845  23.20916  23.27572  23.28080
 Alpha virt. eigenvalues --   23.31332  23.31976  23.38038  23.38718  23.45469
 Alpha virt. eigenvalues --   23.56187  24.16222  24.16460  44.58738  44.66415
          Condensed to atoms (all electrons):
               1          2          3          4          5          6
     1  C    4.953665   0.369039   0.429784   0.266432  -0.031137  -0.086844
     2  H    0.369039   0.615195  -0.043885   0.007980  -0.005074   0.000869
     3  H    0.429784  -0.043885   0.599997  -0.040126   0.007063  -0.000778
     4  C    0.266432   0.007980  -0.040126   4.692397   0.400046   0.461456
     5  H   -0.031137  -0.005074   0.007063   0.400046   0.567755  -0.017344
     6  H   -0.086844   0.000869  -0.000778   0.461456  -0.017344   0.611556
     7  O    0.242953  -0.041291  -0.043311  -0.030662   0.004941   0.003591
     8  O   -0.051040   0.003708  -0.003603   0.301077  -0.029050  -0.040429
     9  C   -0.054335  -0.003594  -0.008971  -0.000725  -0.000632   0.000710
    10  C   -0.023162   0.006637   0.009817   0.002538   0.000210  -0.000039
    11  C   -0.009351   0.003303   0.002061   0.001038  -0.000130   0.000146
    12  C   -0.002203  -0.002809  -0.001372  -0.001054  -0.000035  -0.000094
    13  C   -0.000051  -0.000427  -0.000332  -0.000283  -0.000007  -0.000021
    14  C    0.000011   0.000264   0.000137   0.000170   0.000007   0.000009
    15  H    0.003384   0.001724   0.000857   0.001390   0.000028   0.000252
    16  H   -0.002346   0.000242   0.000206   0.000445   0.000083   0.000034
    17  H   -0.000172   0.000000   0.000005   0.000000   0.000000   0.000000
    18  H    0.000043  -0.000002  -0.000001  -0.000003   0.000000   0.000000
    19  H    0.000006   0.000002   0.000001   0.000000   0.000000   0.000000
    20  C    0.014750   0.000761  -0.002443  -0.068525   0.003750  -0.024081
    21  C    0.002696  -0.000316   0.002398  -0.003559  -0.000135   0.004148
    22  C   -0.005792  -0.000509   0.001276  -0.002368  -0.000944   0.009985
    23  C    0.000622  -0.000021   0.000025  -0.001506   0.000127  -0.000755
    24  C    0.003173  -0.000247   0.002546  -0.006249   0.000393  -0.004665
    25  C   -0.000532   0.000024  -0.000108   0.000956  -0.000050   0.000714
    26  H   -0.000365  -0.000001   0.000011   0.000492  -0.000232   0.000336
    27  H   -0.004287   0.001300  -0.003749   0.007279  -0.000514   0.004662
    28  H    0.000006   0.000000  -0.000004   0.000014   0.000000  -0.000005
    29  H   -0.000032  -0.000005   0.000057  -0.000003   0.000000  -0.000043
    30  H    0.000001   0.000000   0.000000   0.000000   0.000000   0.000004
               7          8          9         10         11         12
     1  C    0.242953  -0.051040  -0.054335  -0.023162  -0.009351  -0.002203
     2  H   -0.041291   0.003708  -0.003594   0.006637   0.003303  -0.002809
     3  H   -0.043311  -0.003603  -0.008971   0.009817   0.002061  -0.001372
     4  C   -0.030662   0.301077  -0.000725   0.002538   0.001038  -0.001054
     5  H    0.004941  -0.029050  -0.000632   0.000210  -0.000130  -0.000035
     6  H    0.003591  -0.040429   0.000710  -0.000039   0.000146  -0.000094
     7  O    7.832221  -0.004840   0.374518  -0.079190  -0.051418   0.011560
     8  O   -0.004840   7.815522   0.002179   0.000217   0.000146  -0.000077
     9  C    0.374518   0.002179   4.897255   0.217768   0.370132   0.125854
    10  C   -0.079190   0.000217   0.217768   5.275169   0.126221   0.288786
    11  C   -0.051418   0.000146   0.370132   0.126221   4.986060  -0.124780
    12  C    0.011560  -0.000077   0.125854   0.288786  -0.124780   4.998461
    13  C    0.003463  -0.000063   0.038043  -0.129861   0.485056   0.026034
    14  C   -0.001108   0.000012  -0.111569   0.032706   0.006348   0.491011
    15  H   -0.007431   0.000094  -0.050395   0.428638   0.004402  -0.024089
    16  H    0.010523   0.000189  -0.065744   0.020646   0.429313  -0.006328
    17  H   -0.000169   0.000000  -0.000116  -0.020201   0.003065   0.397036
    18  H   -0.000171   0.000000   0.011576  -0.003181  -0.035277   0.009206
    19  H    0.000014   0.000000  -0.001036   0.009842   0.006529  -0.032281
    20  C    0.004827   0.348730  -0.000194  -0.000102  -0.000091   0.000084
    21  C   -0.000721  -0.042558   0.000158   0.000078   0.000045   0.000001
    22  C    0.000536  -0.077755   0.000250   0.000003   0.000029   0.000039
    23  C   -0.000072   0.001740  -0.000024  -0.000003  -0.000005   0.000002
    24  C   -0.000033   0.010669  -0.000061   0.000010  -0.000009   0.000008
    25  C    0.000007  -0.000336   0.000011  -0.000002   0.000003  -0.000003
    26  H    0.000053   0.011012   0.000031   0.000004   0.000007  -0.000001
    27  H    0.000125  -0.006680   0.000081  -0.000051   0.000017  -0.000016
    28  H    0.000000  -0.000198   0.000000   0.000000   0.000000   0.000000
    29  H    0.000000  -0.000173   0.000001   0.000001   0.000000   0.000000
    30  H    0.000000   0.000016   0.000000   0.000000   0.000000   0.000000
              13         14         15         16         17         18
     1  C   -0.000051   0.000011   0.003384  -0.002346  -0.000172   0.000043
     2  H   -0.000427   0.000264   0.001724   0.000242   0.000000  -0.000002
     3  H   -0.000332   0.000137   0.000857   0.000206   0.000005  -0.000001
     4  C   -0.000283   0.000170   0.001390   0.000445   0.000000  -0.000003
     5  H   -0.000007   0.000007   0.000028   0.000083   0.000000   0.000000
     6  H   -0.000021   0.000009   0.000252   0.000034   0.000000   0.000000
     7  O    0.003463  -0.001108  -0.007431   0.010523  -0.000169  -0.000171
     8  O   -0.000063   0.000012   0.000094   0.000189   0.000000   0.000000
     9  C    0.038043  -0.111569  -0.050395  -0.065744  -0.000116   0.011576
    10  C   -0.129861   0.032706   0.428638   0.020646  -0.020201  -0.003181
    11  C    0.485056   0.006348   0.004402   0.429313   0.003065  -0.035277
    12  C    0.026034   0.491011  -0.024089  -0.006328   0.397036   0.009206
    13  C    4.829416   0.490419   0.000262  -0.041351   0.002724   0.415679
    14  C    0.490419   4.850677   0.005771   0.013028  -0.020122  -0.036742
    15  H    0.000262   0.005771   0.548101  -0.000200  -0.003361   0.000069
    16  H   -0.041351   0.013028  -0.000200   0.544126   0.000112  -0.007458
    17  H    0.002724  -0.020122  -0.003361   0.000112   0.532580  -0.000527
    18  H    0.415679  -0.036742   0.000069  -0.007458  -0.000527   0.538519
    19  H   -0.031370   0.410866  -0.000400  -0.000287  -0.003808  -0.004168
    20  C    0.000017  -0.000008  -0.000133  -0.000008   0.000000   0.000000
    21  C    0.000003  -0.000001   0.000008   0.000000   0.000000   0.000000
    22  C    0.000003  -0.000002  -0.000017   0.000004   0.000001   0.000000
    23  C    0.000000   0.000000  -0.000004  -0.000002   0.000000   0.000000
    24  C    0.000001  -0.000001  -0.000029  -0.000001   0.000000   0.000000
    25  C    0.000000   0.000000   0.000006   0.000000   0.000000   0.000000
    26  H   -0.000001   0.000000   0.000001   0.000008   0.000000   0.000000
    27  H   -0.000002   0.000001   0.000101   0.000001   0.000000   0.000000
    28  H    0.000000   0.000000   0.000000   0.000000   0.000000   0.000000
    29  H    0.000000   0.000000  -0.000001   0.000000   0.000000   0.000000
    30  H    0.000000   0.000000   0.000000   0.000000   0.000000   0.000000
              19         20         21         22         23         24
     1  C    0.000006   0.014750   0.002696  -0.005792   0.000622   0.003173
     2  H    0.000002   0.000761  -0.000316  -0.000509  -0.000021  -0.000247
     3  H    0.000001  -0.002443   0.002398   0.001276   0.000025   0.002546
     4  C    0.000000  -0.068525  -0.003559  -0.002368  -0.001506  -0.006249
     5  H    0.000000   0.003750  -0.000135  -0.000944   0.000127   0.000393
     6  H    0.000000  -0.024081   0.004148   0.009985  -0.000755  -0.004665
     7  O    0.000014   0.004827  -0.000721   0.000536  -0.000072  -0.000033
     8  O    0.000000   0.348730  -0.042558  -0.077755   0.001740   0.010669
     9  C   -0.001036  -0.000194   0.000158   0.000250  -0.000024  -0.000061
    10  C    0.009842  -0.000102   0.000078   0.000003  -0.000003   0.000010
    11  C    0.006529  -0.000091   0.000045   0.000029  -0.000005  -0.000009
    12  C   -0.032281   0.000084   0.000001   0.000039   0.000002   0.000008
    13  C   -0.031370   0.000017   0.000003   0.000003   0.000000   0.000001
    14  C    0.410866  -0.000008  -0.000001  -0.000002   0.000000  -0.000001
    15  H   -0.000400  -0.000133   0.000008  -0.000017  -0.000004  -0.000029
    16  H   -0.000287  -0.000008   0.000000   0.000004  -0.000002  -0.000001
    17  H   -0.003808   0.000000   0.000000   0.000001   0.000000   0.000000
    18  H   -0.004168   0.000000   0.000000   0.000000   0.000000   0.000000
    19  H    0.532896   0.000000   0.000000   0.000000   0.000000   0.000000
    20  C    0.000000   4.865528   0.432043   0.271941   0.005342   0.080402
    21  C    0.000000   0.432043   4.917725   0.069962   0.527840  -0.093583
    22  C    0.000000   0.271941   0.069962   5.227775  -0.102113   0.325355
    23  C    0.000000   0.005342   0.527840  -0.102113   4.792507   0.007183
    24  C    0.000000   0.080402  -0.093583   0.325355   0.007183   4.977761
    25  C    0.000000  -0.090544  -0.018448   0.013780   0.509994   0.502429
    26  H    0.000000  -0.059230   0.423959   0.017131  -0.037006  -0.005283
    27  H    0.000000  -0.053284   0.001378   0.427852   0.000870  -0.018810
    28  H    0.000000   0.011757  -0.035279  -0.003491   0.416280   0.009815
    29  H    0.000000   0.000396   0.003145  -0.018197   0.002455   0.394342
    30  H    0.000000  -0.000922   0.006165   0.009637  -0.030804  -0.032395
              25         26         27         28         29         30
     1  C   -0.000532  -0.000365  -0.004287   0.000006  -0.000032   0.000001
     2  H    0.000024  -0.000001   0.001300   0.000000  -0.000005   0.000000
     3  H   -0.000108   0.000011  -0.003749  -0.000004   0.000057   0.000000
     4  C    0.000956   0.000492   0.007279   0.000014  -0.000003   0.000000
     5  H   -0.000050  -0.000232  -0.000514   0.000000   0.000000   0.000000
     6  H    0.000714   0.000336   0.004662  -0.000005  -0.000043   0.000004
     7  O    0.000007   0.000053   0.000125   0.000000   0.000000   0.000000
     8  O   -0.000336   0.011012  -0.006680  -0.000198  -0.000173   0.000016
     9  C    0.000011   0.000031   0.000081   0.000000   0.000001   0.000000
    10  C   -0.000002   0.000004  -0.000051   0.000000   0.000001   0.000000
    11  C    0.000003   0.000007   0.000017   0.000000   0.000000   0.000000
    12  C   -0.000003  -0.000001  -0.000016   0.000000   0.000000   0.000000
    13  C    0.000000  -0.000001  -0.000002   0.000000   0.000000   0.000000
    14  C    0.000000   0.000000   0.000001   0.000000   0.000000   0.000000
    15  H    0.000006   0.000001   0.000101   0.000000  -0.000001   0.000000
    16  H    0.000000   0.000008   0.000001   0.000000   0.000000   0.000000
    17  H    0.000000   0.000000   0.000000   0.000000   0.000000   0.000000
    18  H    0.000000   0.000000   0.000000   0.000000   0.000000   0.000000
    19  H    0.000000   0.000000   0.000000   0.000000   0.000000   0.000000
    20  C   -0.090544  -0.059230  -0.053284   0.011757   0.000396  -0.000922
    21  C   -0.018448   0.423959   0.001378  -0.035279   0.003145   0.006165
    22  C    0.013780   0.017131   0.427852  -0.003491  -0.018197   0.009637
    23  C    0.509994  -0.037006   0.000870   0.416280   0.002455  -0.030804
    24  C    0.502429  -0.005283  -0.018810   0.009815   0.394342  -0.032395
    25  C    4.841944   0.011833   0.005058  -0.037979  -0.019192   0.411234
    26  H    0.011833   0.538086  -0.000291  -0.007504   0.000108  -0.000291
    27  H    0.005058  -0.000291   0.552422   0.000072  -0.003576  -0.000411
    28  H   -0.037979  -0.007504   0.000072   0.538403  -0.000522  -0.004225
    29  H   -0.019192   0.000108  -0.003576  -0.000522   0.531438  -0.003747
    30  H    0.411234  -0.000291  -0.000411  -0.004225  -0.003747   0.531965
 Mulliken charges:
               1
     1  C   -0.014913
     2  H    0.087133
     3  H    0.092440
     4  C    0.011354
     5  H    0.100883
     6  H    0.076625
     7  O   -0.228915
     8  O   -0.238509
     9  C    0.258828
    10  C   -0.163500
    11  C   -0.202860
    12  C   -0.152943
    13  C   -0.087353
    14  C   -0.131886
    15  H    0.090972
    16  H    0.104764
    17  H    0.112951
    18  H    0.112439
    19  H    0.113194
    20  C    0.259236
    21  C   -0.197150
    22  C   -0.164369
    23  C   -0.092670
    24  C   -0.152721
    25  C   -0.130799
    26  H    0.107134
    27  H    0.090451
    28  H    0.112858
    29  H    0.113551
    30  H    0.113774
 Sum of Mulliken charges =   0.00000
 Mulliken charges with hydrogens summed into heavy atoms:
               1
     1  C    0.164661
     4  C    0.188863
     7  O   -0.228915
     8  O   -0.238509
     9  C    0.258828
    10  C   -0.072529
    11  C   -0.098096
    12  C   -0.039991
    13  C    0.025086
    14  C   -0.018692
    20  C    0.259236
    21  C   -0.090016
    22  C   -0.073918
    23  C    0.020188
    24  C   -0.039170
    25  C   -0.017025
 Electronic spatial extent (au):  <R**2>=           5053.5819
 Charge=              0.0000 electrons
 Dipole moment (field-independent basis, Debye):
    X=             -0.0943    Y=             -0.1535    Z=             -1.7749  Tot=              1.7840
 Quadrupole moment (field-independent basis, Debye-Ang):
   XX=            -93.9160   YY=            -92.8629   ZZ=            -85.8338
   XY=              0.9851   XZ=              1.4693   YZ=              0.1614
 Traceless Quadrupole moment (field-independent basis, Debye-Ang):
   XX=             -3.0451   YY=             -1.9920   ZZ=              5.0371
   XY=              0.9851   XZ=              1.4693   YZ=              0.1614
 Octapole moment (field-independent basis, Debye-Ang**2):
  XXX=             17.6546  YYY=             19.3723  ZZZ=              2.2143  XYY=             -3.4215
  XXY=            -36.8491  XXZ=             23.6778  XZZ=             -5.9048  YZZ=              5.1554
  YYZ=             -9.5393  XYZ=              8.5773
 Hexadecapole moment (field-independent basis, Debye-Ang**3):
 XXXX=          -5597.8945 YYYY=           -775.2739 ZZZZ=           -602.9165 XXXY=              7.6896
 XXXZ=             46.0467 YYYX=              3.3948 YYYZ=              3.6006 ZZZX=             -3.6960
 ZZZY=             14.8138 XXYY=          -1018.4714 XXZZ=           -963.0999 YYZZ=           -226.9947
 XXYZ=             21.1776 YYXZ=             -5.0360 ZZXY=             11.1027
 N-N= 9.995555150982D+02 E-N=-3.610397295626D+03  KE= 6.885840105221D+02
 No NMR shielding tensors so no spin-rotation constants.
 Leave Link  601 at Fri May 17 10:32:55 2024, MaxMem=  6291456000 cpu:        21.5
 (Enter /home/madghost/g09/l607.exe)
 ******************************Gaussian NBO Version 3.1******************************
             N A T U R A L   A T O M I C   O R B I T A L   A N D
          N A T U R A L   B O N D   O R B I T A L   A N A L Y S I S
 ******************************Gaussian NBO Version 3.1******************************

       /RESON  / : Allow strongly delocalized NBO set
       /E2PERT / : Analyze NBO Fock matrix
                   Print threshold set to  0.05
       /PLOT   / : Write information for the orbital plotter
       /ARCHIVE/ : Write the archive file to LFN 47
       /BNDIDX / : Print bond indices based on the NAO density matrix
       /FILE   / : Set to JOB96                                               

 Analyzing the SCF density

 Job title: c2h                                                             

 Storage needed:   1440014 in NPA,   1918463 in NBO,   1440952 in NLMO (6291451200 available)


 NATURAL POPULATIONS:  Natural atomic orbital occupancies 
                                                          
   NAO  Atom  No  lang   Type(AO)    Occupancy      Energy
 ----------------------------------------------------------
     1    C    1  S      Cor( 1S)     1.99924     -10.15798
     2    C    1  S      Val( 2S)     1.03850      -0.31194
     3    C    1  S      Ryd( 3S)     0.00347       1.45061
     4    C    1  S      Ryd( 4S)     0.00010       2.17150
     5    C    1  S      Ryd( 5S)     0.00000      21.28137
     6    C    1  px     Val( 2p)     0.94898      -0.11491
     7    C    1  px     Ryd( 3p)     0.00163       1.25163
     8    C    1  px     Ryd( 4p)     0.00022       1.57774
     9    C    1  py     Val( 2p)     1.15713      -0.12983
    10    C    1  py     Ryd( 3p)     0.00110       1.18847
    11    C    1  py     Ryd( 4p)     0.00031       1.33050
    12    C    1  pz     Val( 2p)     0.95704      -0.11254
    13    C    1  pz     Ryd( 3p)     0.00197       1.13917
    14    C    1  pz     Ryd( 4p)     0.00021       1.37757
    15    C    1  dxy    Ryd( 3d)     0.00181       1.64157
    16    C    1  dxy    Ryd( 4d)     0.00015       3.47427
    17    C    1  dxz    Ryd( 3d)     0.00101       1.84738
    18    C    1  dxz    Ryd( 4d)     0.00032       3.68216
    19    C    1  dyz    Ryd( 3d)     0.00081       1.54445
    20    C    1  dyz    Ryd( 4d)     0.00018       3.17321
    21    C    1  dx2y2  Ryd( 3d)     0.00111       1.56493
    22    C    1  dx2y2  Ryd( 4d)     0.00032       3.30007
    23    C    1  dz2    Ryd( 3d)     0.00230       1.66631
    24    C    1  dz2    Ryd( 4d)     0.00021       3.42887
    25    C    1  f(0)   Ryd( 4f)     0.00004       3.88776
    26    C    1  f(C1)  Ryd( 4f)     0.00009       4.04642
    27    C    1  f(S1)  Ryd( 4f)     0.00004       3.94751
    28    C    1  f(C2)  Ryd( 4f)     0.00006       3.87235
    29    C    1  f(S2)  Ryd( 4f)     0.00004       3.94557
    30    C    1  f(C3)  Ryd( 4f)     0.00005       3.90083
    31    C    1  f(S3)  Ryd( 4f)     0.00006       3.89305

    32    H    2  S      Val( 1S)     0.81815      -0.02514
    33    H    2  S      Ryd( 2S)     0.00163       0.54005
    34    H    2  S      Ryd( 3S)     0.00016       2.26474
    35    H    2  px     Ryd( 2p)     0.00022       2.65533
    36    H    2  px     Ryd( 3p)     0.00006       3.59535
    37    H    2  py     Ryd( 2p)     0.00023       2.48078
    38    H    2  py     Ryd( 3p)     0.00004       3.57779
    39    H    2  pz     Ryd( 2p)     0.00011       3.45274
    40    H    2  pz     Ryd( 3p)     0.00016       3.78098
    41    H    2  dxy    Ryd( 3d)     0.00002       3.77587
    42    H    2  dxz    Ryd( 3d)     0.00003       4.28222
    43    H    2  dyz    Ryd( 3d)     0.00003       4.05659
    44    H    2  dx2y2  Ryd( 3d)     0.00003       3.75781
    45    H    2  dz2    Ryd( 3d)     0.00002       4.33921

    46    H    3  S      Val( 1S)     0.80690      -0.01126
    47    H    3  S      Ryd( 2S)     0.00197       0.62174
    48    H    3  S      Ryd( 3S)     0.00018       2.33133
    49    H    3  px     Ryd( 2p)     0.00029       2.52834
    50    H    3  px     Ryd( 3p)     0.00007       3.93796
    51    H    3  py     Ryd( 2p)     0.00012       3.38607
    52    H    3  py     Ryd( 3p)     0.00020       3.98627
    53    H    3  pz     Ryd( 2p)     0.00020       2.22676
    54    H    3  pz     Ryd( 3p)     0.00002       3.71137
    55    H    3  dxy    Ryd( 3d)     0.00005       4.28696
    56    H    3  dxz    Ryd( 3d)     0.00003       3.74343
    57    H    3  dyz    Ryd( 3d)     0.00003       4.05918
    58    H    3  dx2y2  Ryd( 3d)     0.00004       4.33647
    59    H    3  dz2    Ryd( 3d)     0.00002       3.88248

    60    C    4  S      Cor( 1S)     1.99922     -10.15791
    61    C    4  S      Val( 2S)     1.03149      -0.30558
    62    C    4  S      Ryd( 3S)     0.00235       1.33632
    63    C    4  S      Ryd( 4S)     0.00014       2.59061
    64    C    4  S      Ryd( 5S)     0.00000      21.55649
    65    C    4  px     Val( 2p)     0.99316      -0.11475
    66    C    4  px     Ryd( 3p)     0.00229       1.12750
    67    C    4  px     Ryd( 4p)     0.00011       1.52991
    68    C    4  py     Val( 2p)     1.11407      -0.12887
    69    C    4  py     Ryd( 3p)     0.00150       1.06095
    70    C    4  py     Ryd( 4p)     0.00041       1.81820
    71    C    4  pz     Val( 2p)     0.94521      -0.10596
    72    C    4  pz     Ryd( 3p)     0.00378       1.14406
    73    C    4  pz     Ryd( 4p)     0.00023       1.48621
    74    C    4  dxy    Ryd( 3d)     0.00196       1.80427
    75    C    4  dxy    Ryd( 4d)     0.00012       3.52655
    76    C    4  dxz    Ryd( 3d)     0.00133       1.93418
    77    C    4  dxz    Ryd( 4d)     0.00034       3.60051
    78    C    4  dyz    Ryd( 3d)     0.00072       1.64699
    79    C    4  dyz    Ryd( 4d)     0.00020       3.11510
    80    C    4  dx2y2  Ryd( 3d)     0.00116       1.61764
    81    C    4  dx2y2  Ryd( 4d)     0.00016       3.12670
    82    C    4  dz2    Ryd( 3d)     0.00165       1.78038
    83    C    4  dz2    Ryd( 4d)     0.00024       3.33802
    84    C    4  f(0)   Ryd( 4f)     0.00005       3.98284
    85    C    4  f(C1)  Ryd( 4f)     0.00008       4.05076
    86    C    4  f(S1)  Ryd( 4f)     0.00004       3.79560
    87    C    4  f(C2)  Ryd( 4f)     0.00004       3.94404
    88    C    4  f(S2)  Ryd( 4f)     0.00004       3.89718
    89    C    4  f(C3)  Ryd( 4f)     0.00004       3.89063
    90    C    4  f(S3)  Ryd( 4f)     0.00004       3.83224

    91    H    5  S      Val( 1S)     0.78707      -0.00134
    92    H    5  S      Ryd( 2S)     0.00070       1.08904
    93    H    5  S      Ryd( 3S)     0.00011       1.50355
    94    H    5  px     Ryd( 3p)     0.00008       4.00923
    95    H    5  px     Ryd( 2p)     0.00014       2.14997
    96    H    5  py     Ryd( 3p)     0.00060       4.25729
    97    H    5  py     Ryd( 2p)     0.00005       3.05150
    98    H    5  pz     Ryd( 3p)     0.00003       3.95679
    99    H    5  pz     Ryd( 2p)     0.00012       2.02971
   100    H    5  dxy    Ryd( 3d)     0.00004       4.27211
   101    H    5  dxz    Ryd( 3d)     0.00002       3.80991
   102    H    5  dyz    Ryd( 3d)     0.00002       4.10025
   103    H    5  dx2y2  Ryd( 3d)     0.00008       4.21261
   104    H    5  dz2    Ryd( 3d)     0.00005       3.84443

   105    H    6  S      Val( 1S)     0.81634      -0.02183
   106    H    6  S      Ryd( 2S)     0.00102       0.98438
[...]
   20      25      33    -0.0033196      -0.0169295
   20      25      35    -0.0666120      -0.0441438
   20      25      36    -0.0035610      -0.0147547
   20      25      57     0.0127522       0.0399342
   20      26      25    -0.0023918      -0.1233862
   20      26      29     0.0071260       0.0313160
   20      27      24    -0.0027737      -0.1122515
   20      27      31     0.0067086       0.0172441
   20      28      24     0.0025140       0.0594215
   20      28      33    -0.0033196      -0.0049486
   20      29      25     0.0024013       0.0619365
   20      29      36    -0.0035610      -0.0035816
   20      30      27     0.0026186       0.0608182
   20      30      30     0.0026759       0.0534265
   21      22      24     0.0038793       0.2249647
   21      22      25     0.0041137       0.1524343
   21      22      26     0.0694831       0.1160550
   21      22      28    -0.0388345      -0.0739959
   21      22      29    -0.0038263      -0.0550195
   21      22      31    -0.0034549      -0.0618281
   21      22      35    -0.0499911      -0.0873214
   21      22      37    -0.0031840      -0.0835849
   21      22      56    -0.0026841      -0.3590253
   21      22      57     0.0186409       0.0662137
   21      23      24     0.0038926       0.2759704
   21      23      26    -0.0645744      -0.3740184
   21      23      27     0.9818498       0.8093938
   21      23      28     0.7726123       0.4060255
   21      23      29     0.0062312       0.1237861
   21      23      32     0.0042708       0.3053553
   21      23      33     0.0060549       0.1905034
   21      23      35    -0.0499911      -0.3549919
   21      23      37    -0.0031840      -0.4084110
   21      24      25     0.0041137       0.1241811
   21      24      26     0.0694831       0.0738244
   21      24      28    -0.0663184      -0.0414024
   21      24      31    -0.0034549      -0.0498879
   21      24      32     0.0041463       0.2247457
   21      24      33    -0.0030622      -0.0538737
   21      24      35    -0.0499911      -0.0383156
   21      24      37    -0.0031840      -0.0461629
   21      25      26    -0.0531027      -0.0794497
   21      25      27     0.0039037       0.2149711
   21      25      28     0.0670958       0.1147498
   21      25      29    -0.0033268      -0.0639867
   21      25      31    -0.0030585      -0.0681867
   21      25      32     0.0042708       0.2044352
   21      25      33     0.0057055       0.3072390
   21      25      35    -0.0499911      -0.0695916
   21      25      37    -0.0031840      -0.0619310
   21      25      57    -0.0127522      -0.0578288
   21      26      25    -0.0023918      -0.4621249
   21      26      29     0.7623283       0.8106393
   21      26      32    -0.0028371      -0.5259274
   21      27      24     0.0027737       0.0020789
   21      27      31     0.0034549       0.0025979
   21      28      24    -0.0025140      -0.1161379
   21      28      33     0.0060549       0.0475643
   21      29      25     0.0024013       0.0481725
   21      29      32     0.0028997       0.0711110
   21      30      27     0.0026186       0.0668270
   21      30      37    -0.0031840      -0.0005764
   22      23      24     0.0038793       0.1502245
   22      23      26    -0.0645744      -0.0440549
   22      23      28    -0.0388345      -0.0405635
   22      23      29    -0.0038263      -0.0458961
   22      23      34     0.0040225       0.2178641
   22      23      35     0.0617199       0.0798835
   22      23      36    -0.0031885      -0.0572588
   22      23      37    -0.0035105      -0.0513836
   22      24      25     0.0044791       0.2520887
   22      24      26     0.1555291       0.4193174
   22      24      28     0.0388345       0.3316437
   22      24      30     0.9765361       0.8047323
   22      24      31     0.0056344       0.1665695
   22      24      34     0.0041846       0.3121240
   22      24      35     0.0617199       0.4381766
   22      24      36     0.0059800       0.1854369
   22      24      37    -0.0035105      -0.4268959
   22      25      26    -0.0531027      -0.0699980
   22      25      28    -0.0388345      -0.0856737
   22      25      29    -0.0033268      -0.0640900
   22      25      30     0.0039365       0.2247201
   22      25      31    -0.0030585      -0.0599597
   22      25      34     0.0041846       0.2202835
   22      25      35     0.0617199       0.1212390
   22      25      36     0.0059258       0.3186037
   22      25      37    -0.0035105      -0.0668789
   22      25      57    -0.0127522      -0.0582890
   22      26      25    -0.0023918      -0.0068699
   22      26      29    -0.0038263      -0.0011825
   22      27      24    -0.0027737      -0.5051508
   22      27      31     0.7743639       0.8134811
   22      27      34    -0.0027420      -0.5134095
   22      28      24     0.0025140       0.0498488
   22      28      34     0.0027519       0.0686128
   22      29      25    -0.0024013      -0.1223339
   22      29      36     0.0059800       0.0459357
   22      30      30     0.0026759       0.0710496
   22      30      37    -0.0035105      -0.0025268
   23      24      26    -0.0645744      -0.0893136
   23      24      28    -0.0663184      -0.0793302
   23      24      32     0.0041463       0.2359982
   23      24      33    -0.0030622      -0.0739042
   23      24      34     0.0040225       0.2335592
   23      24      35     0.1475766       0.1155701
   23      24      36    -0.0031885      -0.0736165
   23      24      37     0.0057891       0.2836227
   23      25      26     0.0531027       0.3281954
   23      25      27     0.0039037       0.3172561
   23      25      28     0.0670958       0.4294232
   23      25      29    -0.0033268      -0.4180690
   23      25      32     0.9906887       0.8062456
   23      25      33     0.0057055       0.1624861
   23      25      34     0.0040225       0.3289339
   23      25      35     0.1475766       0.4195357
   23      25      36    -0.0031885      -0.4156644
   23      25      37     0.0057891       0.1382413
   23      26      29     0.0062312       0.0184796
   23      26      32    -0.0028371      -0.1156989
   23      27      24     0.0027737       0.0119902
   23      27      34     0.0027420       0.0218301
   23      28      24    -0.0025140      -0.5655141
   23      28      33     0.7736372       0.8110237
   23      28      34    -0.0027519      -0.5737834
   23      29      32     0.0028997       0.0698290
   23      29      36    -0.0031885      -0.0066488
   23      30      27    -0.0026186      -0.1160989
   23      30      37     0.0057891       0.0126809
   24      25      26    -0.0531027      -0.3538242
   24      25      28    -0.0663184      -0.3731375
   24      25      30     0.0039365       0.3177080
   24      25      31    -0.0030585      -0.3893854
   24      25      32     0.0041463       0.3379831
   24      25      33    -0.0030622      -0.4070287
   24      25      34     0.9884782       0.8071329
   24      25      35     0.7667626       0.4078086
   24      25      36     0.0059258       0.1595830
   24      25      37     0.0062964       0.1459944
   24      26      25     0.0023918       0.0052765
   24      26      32     0.0028371       0.0206611
   24      27      31     0.0056344       0.0562791
   24      27      34    -0.0027420      -0.1176561
   24      28      33    -0.0030622      -0.0041854
   24      28      34     0.0027519       0.0680190
   24      29      25    -0.0024013      -0.5428490
   24      29      32    -0.0028997      -0.5789219
   24      29      36     0.7752135       0.8101323
   24      30      30    -0.0026759      -0.1169308
   24      30      37     0.0062964       0.0210671
   25      26      29     0.0033268       0.0005050
   25      26      32     0.0028371       0.0083717
   25      27      31     0.0030585       0.0028134
   25      27      34     0.0027420       0.0108337
   25      28      33     0.0057055       0.0241837
   25      28      34    -0.0027519      -0.1120882
   25      29      32    -0.0028997      -0.1126926
   25      29      36     0.0059258       0.0215985
   25      30      27    -0.0026186      -0.5828110
   25      30      30    -0.0026759      -0.5837052
   25      30      37     0.7731931       0.8109976
   26      29      25    -0.0023918      -0.0015613
   26      29      32    -0.0028371      -0.0007420
   27      28      24    -0.0025140      -0.0009251
   27      28      34    -0.0027420      -0.0006042


 Atom-Atom Net Linear NLMO/NPA Bond Orders:                                    

     Atom    1       2       3       4       5       6       7       8       9
     ---- ------  ------  ------  ------  ------  ------  ------  ------  ------
   1.  C  0.0000  0.7835  0.7715  0.9938 -0.0012 -0.0010  0.6876 -0.0145  0.0219
   2.  H  0.7835  0.0000 -0.0075  0.0068  0.0016  0.0023 -0.0184  0.0065 -0.0157
   3.  H  0.7715 -0.0075  0.0000 -0.0013 -0.0079 -0.0004 -0.0175  0.0002 -0.0110
   4.  C  0.9938  0.0068 -0.0013  0.0000  0.7656  0.7861 -0.0159  0.6962  0.0030
   5.  H -0.0012  0.0016 -0.0079  0.7656  0.0000 -0.0032 -0.0010 -0.0117 -0.0004
   6.  H -0.0010  0.0023 -0.0004  0.7861 -0.0032  0.0000  0.0043 -0.0168  0.0004
   7.  O  0.6876 -0.0184 -0.0175 -0.0159 -0.0010  0.0043  0.0000  0.0042  0.7460
   8.  O -0.0145  0.0065  0.0002  0.6962 -0.0117 -0.0168  0.0042  0.0000 -0.0025
   9.  C  0.0219 -0.0157 -0.0110  0.0030 -0.0004  0.0004  0.7460 -0.0025  0.0000
  10.  C -0.0216  0.0139  0.0059 -0.0056  0.0014  0.0000 -0.0415 -0.0001  1.5506
  11.  C -0.0045  0.0106 -0.0077 -0.0006  0.0004  0.0011 -0.0238  0.0000  1.2322
  12.  C  0.0000  0.0004  0.0009 -0.0019 -0.0002  0.0006  0.0060 -0.0002  0.0325
  13.  C -0.0085  0.0010  0.0001 -0.0025 -0.0003 -0.0005  0.0085  0.0003  0.0241
  14.  C  0.0096 -0.0132  0.0110  0.0002 -0.0006 -0.0004  0.0216  0.0002 -0.0456
  15.  H -0.0020  0.0013 -0.0010  0.0017  0.0006 -0.0005  0.0009 -0.0004  0.0023
  16.  H  0.0017  0.0000 -0.0002  0.0009  0.0003  0.0004 -0.0002 -0.0001  0.0031
  17.  H  0.0013  0.0005  0.0000  0.0003 -0.0001 -0.0003 -0.0033  0.0001  0.0010
  18.  H -0.0018  0.0002 -0.0001  0.0001  0.0002 -0.0003  0.0008 -0.0001  0.0012
  19.  H  0.0000 -0.0002  0.0003 -0.0002 -0.0001  0.0000  0.0056  0.0001  0.0071
  20.  C -0.0143  0.0022 -0.0056  0.0187  0.0069 -0.0100 -0.0020  0.7494  0.0014
  21.  C  0.0122 -0.0005 -0.0006 -0.0052  0.0001 -0.0072  0.0003 -0.0245  0.0001
  22.  C  0.0068 -0.0017 -0.0008 -0.0273  0.0017  0.0027 -0.0006 -0.0396  0.0017
  23.  C  0.0026 -0.0013  0.0016 -0.0081 -0.0028  0.0000  0.0004  0.0089  0.0000
  24.  C -0.0002 -0.0004 -0.0012  0.0000 -0.0007 -0.0010  0.0007  0.0055 -0.0007
  25.  C -0.0092  0.0010  0.0010  0.0103 -0.0013  0.0101  0.0000  0.0224 -0.0001
  26.  H  0.0001  0.0001  0.0000  0.0016  0.0008  0.0002 -0.0001 -0.0004  0.0001
  27.  H -0.0013  0.0003 -0.0002 -0.0031  0.0009 -0.0015 -0.0002  0.0008  0.0008
  28.  H  0.0000  0.0002  0.0000 -0.0023  0.0003 -0.0002  0.0000  0.0008  0.0000
  29.  H  0.0002  0.0001  0.0000  0.0015  0.0005 -0.0001  0.0004 -0.0027  0.0000
  30.  H  0.0002  0.0000  0.0001  0.0006  0.0001  0.0001  0.0000  0.0057  0.0000

     Atom   10      11      12      13      14      15      16      17      18
     ---- ------  ------  ------  ------  ------  ------  ------  ------  ------
   1.  C -0.0216 -0.0045  0.0000 -0.0085  0.0096 -0.0020  0.0017  0.0013 -0.0018
   2.  H  0.0139  0.0106  0.0004  0.0010 -0.0132  0.0013  0.0000  0.0005  0.0002
   3.  H  0.0059 -0.0077  0.0009  0.0001  0.0110 -0.0010 -0.0002  0.0000 -0.0001
   4.  C -0.0056 -0.0006 -0.0019 -0.0025  0.0002  0.0017  0.0009  0.0003  0.0001
   5.  H  0.0014  0.0004 -0.0002 -0.0003 -0.0006  0.0006  0.0003 -0.0001  0.0002
   6.  H  0.0000  0.0011  0.0006 -0.0005 -0.0004 -0.0005  0.0004 -0.0003 -0.0003
   7.  O -0.0415 -0.0238  0.0060  0.0085  0.0216  0.0009 -0.0002 -0.0033  0.0008
   8.  O -0.0001  0.0000 -0.0002  0.0003  0.0002 -0.0004 -0.0001  0.0001 -0.0001
   9.  C  1.5506  1.2322  0.0325  0.0241 -0.0456  0.0023  0.0031  0.0010  0.0012
  10.  C  0.0000 -0.0068  1.2462 -0.0437 -0.0387  0.7633  0.0034  0.0024  0.0069
  11.  C -0.0068  0.0000 -0.0487  1.6567 -0.0462  0.0085  0.7568  0.0073  0.0016
  12.  C  1.2462 -0.0487  0.0000  0.0221  1.6500  0.0022  0.0069  0.7684  0.0014
  13.  C -0.0437  1.6567  0.0221  0.0000  1.2664  0.0062  0.0028  0.0011  0.7674
  14.  C -0.0387 -0.0462  1.6500  1.2664  0.0000  0.0084  0.0088  0.0021  0.0009
  15.  H  0.7633  0.0085  0.0022  0.0062  0.0084  0.0000  0.0009 -0.0027 -0.0057
  16.  H  0.0034  0.7568  0.0069  0.0028  0.0088  0.0009  0.0000 -0.0057 -0.0019
  17.  H  0.0024  0.0073  0.7684  0.0011  0.0021 -0.0027 -0.0057  0.0000 -0.0027
  18.  H  0.0069  0.0016  0.0014  0.7674  0.0009 -0.0057 -0.0019 -0.0027  0.0000
  19.  H  0.0010  0.0011  0.0016  0.0013  0.7670 -0.0011 -0.0009 -0.0032 -0.0034
  20.  C  0.0004 -0.0004 -0.0006 -0.0007 -0.0002  0.0005  0.0001 -0.0001  0.0000
  21.  C  0.0004 -0.0001 -0.0002 -0.0002 -0.0003  0.0003  0.0001 -0.0001  0.0000
  22.  C  0.0001 -0.0001 -0.0004 -0.0003  0.0001  0.0002  0.0002  0.0000 -0.0001
  23.  C -0.0002  0.0000  0.0000  0.0002  0.0000  0.0001  0.0000  0.0000  0.0000
  24.  C  0.0006 -0.0002 -0.0004 -0.0004  0.0000  0.0001  0.0000  0.0000  0.0000
  25.  C  0.0000 -0.0001 -0.0001  0.0001  0.0000  0.0002  0.0000  0.0000  0.0000
  26.  H  0.0000  0.0000  0.0000  0.0000  0.0000  0.0000  0.0000  0.0000  0.0000
  27.  H  0.0001 -0.0001  0.0001  0.0000 -0.0001  0.0002  0.0001 -0.0001  0.0000
  28.  H  0.0000  0.0000  0.0000  0.0000  0.0000  0.0000  0.0000  0.0000  0.0000
  29.  H  0.0000  0.0000  0.0000  0.0000  0.0000  0.0000  0.0000  0.0000  0.0000
  30.  H  0.0000  0.0000  0.0000  0.0000  0.0000  0.0000  0.0000  0.0000  0.0000

     Atom   19      20      21      22      23      24      25      26      27
     ---- ------  ------  ------  ------  ------  ------  ------  ------  ------
   1.  C  0.0000 -0.0143  0.0122  0.0068  0.0026 -0.0002 -0.0092  0.0001 -0.0013
   2.  H -0.0002  0.0022 -0.0005 -0.0017 -0.0013 -0.0004  0.0010  0.0001  0.0003
   3.  H  0.0003 -0.0056 -0.0006 -0.0008  0.0016 -0.0012  0.0010  0.0000 -0.0002
   4.  C -0.0002  0.0187 -0.0052 -0.0273 -0.0081  0.0000  0.0103  0.0016 -0.0031
   5.  H -0.0001  0.0069  0.0001  0.0017 -0.0028 -0.0007 -0.0013  0.0008  0.0009
   6.  H  0.0000 -0.0100 -0.0072  0.0027  0.0000 -0.0010  0.0101  0.0002 -0.0015
   7.  O  0.0056 -0.0020  0.0003 -0.0006  0.0004  0.0007  0.0000 -0.0001 -0.0002
   8.  O  0.0001  0.7494 -0.0245 -0.0396  0.0089  0.0055  0.0224 -0.0004  0.0008
   9.  C  0.0071  0.0014  0.0001  0.0017  0.0000 -0.0007 -0.0001  0.0001  0.0008
  10.  C  0.0010  0.0004  0.0004  0.0001 -0.0002  0.0006  0.0000  0.0000  0.0001
  11.  C  0.0011 -0.0004 -0.0001 -0.0001  0.0000 -0.0002 -0.0001  0.0000 -0.0001
  12.  C  0.0016 -0.0006 -0.0002 -0.0004  0.0000 -0.0004 -0.0001  0.0000  0.0001
  13.  C  0.0013 -0.0007 -0.0002 -0.0003  0.0002 -0.0004  0.0001  0.0000  0.0000
  14.  C  0.7670 -0.0002 -0.0003  0.0001  0.0000  0.0000  0.0000  0.0000 -0.0001
  15.  H -0.0011  0.0005  0.0003  0.0002  0.0001  0.0001  0.0002  0.0000  0.0002
  16.  H -0.0009  0.0001  0.0001  0.0002  0.0000  0.0000  0.0000  0.0000  0.0001
  17.  H -0.0032 -0.0001 -0.0001  0.0000  0.0000  0.0000  0.0000  0.0000 -0.0001
  18.  H -0.0034  0.0000  0.0000 -0.0001  0.0000  0.0000  0.0000  0.0000  0.0000
  19.  H  0.0000 -0.0001  0.0000  0.0000  0.0000  0.0000  0.0000  0.0000  0.0000
  20.  C -0.0001  0.0000  1.2345  1.5495  0.0265  0.0307 -0.0465  0.0032  0.0024
  21.  C  0.0000  1.2345  0.0000 -0.0061  1.6557 -0.0486 -0.0459  0.7558  0.0088
  22.  C  0.0000  1.5495 -0.0061  0.0000 -0.0437  1.2457 -0.0402 -0.0042  0.7667
  23.  C  0.0000  0.0265  1.6557 -0.0437  0.0000  0.0237  1.2683  0.0028  0.0066
  24.  C  0.0000  0.0307 -0.0486  1.2457  0.0237  0.0000  1.6483  0.0069  0.0023
  25.  C  0.0000 -0.0465 -0.0459 -0.0402  1.2683  1.6483  0.0000  0.0088  0.0079
  26.  H  0.0000  0.0032  0.7558 -0.0042  0.0028  0.0069  0.0088  0.0000  0.0008
  27.  H  0.0000  0.0024  0.0088  0.7667  0.0066  0.0023  0.0079  0.0008  0.0000
  28.  H  0.0000  0.0012  0.0013  0.0069  0.7670  0.0014  0.0009 -0.0019 -0.0057
  29.  H  0.0000  0.0009  0.0073  0.0025  0.0011  0.7684  0.0020 -0.0057 -0.0028
  30.  H  0.0000  0.0071  0.0012  0.0010  0.0012  0.0016  0.7665 -0.0009 -0.0011

     Atom   28      29      30
     ---- ------  ------  ------
   1.  C  0.0000  0.0002  0.0002
   2.  H  0.0002  0.0001  0.0000
   3.  H  0.0000  0.0000  0.0001
   4.  C -0.0023  0.0015  0.0006
   5.  H  0.0003  0.0005  0.0001
   6.  H -0.0002 -0.0001  0.0001
   7.  O  0.0000  0.0004  0.0000
   8.  O  0.0008 -0.0027  0.0057
   9.  C  0.0000  0.0000  0.0000
  10.  C  0.0000  0.0000  0.0000
  11.  C  0.0000  0.0000  0.0000
  12.  C  0.0000  0.0000  0.0000
  13.  C  0.0000  0.0000  0.0000
  14.  C  0.0000  0.0000  0.0000
  15.  H  0.0000  0.0000  0.0000
  16.  H  0.0000  0.0000  0.0000
  17.  H  0.0000  0.0000  0.0000
  18.  H  0.0000  0.0000  0.0000
  19.  H  0.0000  0.0000  0.0000
  20.  C  0.0012  0.0009  0.0071
  21.  C  0.0013  0.0073  0.0012
  22.  C  0.0069  0.0025  0.0010
  23.  C  0.7670  0.0011  0.0012
  24.  C  0.0014  0.7684  0.0016
  25.  C  0.0009  0.0020  0.7665
  26.  H -0.0019 -0.0057 -0.0009
  27.  H -0.0057 -0.0028 -0.0011
  28.  H  0.0000 -0.0027 -0.0034
  29.  H -0.0027  0.0000 -0.0032
  30.  H -0.0034 -0.0032  0.0000


 Linear NLMO/NPA Bond Orders, Totals by Atom:                                  

     Atom    1
     ---- ------
   1.  C  3.2130
   2.  H  0.7735
   3.  H  0.7296
   4.  C  3.2136
   5.  H  0.7499
   6.  H  0.7651
   7.  O  1.3629
   8.  O  1.3878
   9.  C  3.5535
  10.  C  3.4383
  11.  C  3.5371
  12.  C  3.6866
  13.  C  3.7008
  14.  C  3.6011
  15.  H  0.7846
  16.  H  0.7775
  17.  H  0.7664
  18.  H  0.7650
  19.  H  0.7759
  20.  C  3.5552
  21.  C  3.5388
  22.  C  3.4207
  23.  C  3.7106
  24.  C  3.6823
  25.  C  3.6045
  26.  H  0.7683
  27.  H  0.7827
  28.  H  0.7641
  29.  H  0.7678
  30.  H  0.7767
 Leave Link  607 at Fri May 17 10:33:32 2024, MaxMem=  6291456000 cpu:       886.8
 (Enter /home/madghost/g09/l9999.exe)
 1\1\GINC-NODE-3\SP\RPBE1PBE\Gen\C14H14O2\NATALYA\17-May-2024\0\\#P PBE
 1PBE/GEN pop=nboread\\c2h\\0,1\C,0,0.259894,0.896027,-1.12169\H,0,0.70
 7616,1.11554,-2.100768\H,0,0.031997,-0.175146,-1.079604\C,0,-0.997737,
 1.713986,-0.961274\H,0,-0.72581,2.759512,-0.808513\H,0,-1.602501,1.651
 223,-1.872468\O,0,1.140938,1.250643,-0.083935\O,0,-1.749613,1.35643,0.
 174654\C,0,2.316744,0.586269,0.010845\C,0,2.738743,-0.391713,-0.883339
 \C,0,3.130409,0.940374,1.085366\C,0,3.970417,-1.007057,-0.691952\C,0,4
 .351755,0.320341,1.260575\C,0,4.782059,-0.659605,0.372744\H,0,2.124041
 ,-0.681229,-1.724891\H,0,2.779592,1.703146,1.769957\H,0,4.291354,-1.76
 9408,-1.392843\H,0,4.975514,0.603356,2.100864\H,0,5.73999,-1.144993,0.
 513581\C,0,-2.49441,0.224309,0.145914\C,0,-3.10913,-0.118917,1.348641\
 C,0,-2.688123,-0.575133,-0.976417\C,0,-3.909236,-1.241996,1.424003\C,0
 ,-3.496469,-1.702042,-0.884765\C,0,-4.109921,-2.044405,0.306725\H,0,-2
 .942399,0.515319,2.210829\H,0,-2.222802,-0.337541,-1.923513\H,0,-4.381
 038,-1.495406,2.366561\H,0,-3.640488,-2.31736,-1.765742\H,0,-4.735643,
 -2.926213,0.368543\\Version=EM64L-G09RevD.01\State=1-A\HF=-691.7943976
 \RMSD=5.479e-09\Dipole=-0.0202113,-0.1345704,-0.6885686\Quadrupole=-2.
 4473637,-1.2235824,3.6709461,0.7187206,0.9168609,0.7597676\PG=C01 [X(C
 14H14O2)]\\@


 Where a calculator on the ENIAC is equipped with 18,000
 vacuum tubes and weighs 30 tons, computers inthe future
 may  have only 1,000 vacuum tubes and weigh only 1 1/2 tons.
              ---Popular Mechanics, March 1949
 Job cpu time:       0 days  3 hours 51 minutes 51.1 seconds.
 File lengths (MBytes):  RWF=    259 Int=      0 D2E=      0 Chk=     18 Scr=      1
 Normal termination of Gaussian 09 at Fri May 17 10:33:33 2024.
