
    -----------------------------------------------------------------------
          Psi4: An Open-Source Ab Initio Electronic Structure Package
                               Psi4 1.7 release

                         Git: Rev {HEAD} 6ce35a5 


    D. G. A. Smith, L. A. Burns, A. C. Simmonett, R. M. Parrish,
    M. C. Schieber, R. Galvelis, P. Kraus, H. Kruse, R. Di Remigio,
    A. Alenaizan, A. M. James, S. Lehtola, J. P. Misiewicz, M. Scheurer,
    R. A. Shaw, J. B. Schriber, Y. Xie, Z. L. Glick, D. A. Sirianni,
    J. S. O'Brien, J. M. Waldrop, A. Kumar, E. G. Hohenstein,
    B. P. Pritchard, B. R. Brooks, H. F. Schaefer III, A. Yu. Sokolov,
    K. Patkowski, A. E. DePrince III, U. Bozkaya, R. A. King,
    F. A. Evangelista, J. M. Turney, T. D. Crawford, C. D. Sherrill,
    J. Chem. Phys. 152(18) 184108 (2020). https://doi.org/10.1063/5.0006002

                            Additional Code Authors
    E. T. Seidl, C. L. Janssen, E. F. Valeev, M. L. Leininger,
    J. F. Gonthier, R. M. Richard, H. R. McAlexander, M. Saitow, X. Wang,
    P. Verma, M. H. Lechner, A. Jiang, S. Behnle, A. G. Heide,
    M. F. Herbst, and D. L. Poole

             Previous Authors, Complete List of Code Contributors,
                       and Citations for Specific Modules
    https://github.com/psi4/psi4/blob/master/codemeta.json
    https://github.com/psi4/psi4/graphs/contributors
    http://psicode.org/psi4manual/master/introduction.html#citing-psifour

    -----------------------------------------------------------------------


    Psi4 started on: Thursday, 09 November 2023 03:16PM

    Process ID: 12448
    Host:       DESKTOP-D4OA462
    PSIDATADIR: C:\Users\Ivan\.conda\envs\psi4\lib\share\psi4
    Memory:     500.0 MiB
    Threads:    1
    
  ==> Input File <==

--------------------------------------------------------------------------
memory 12000 MiB
mol = psi4.core.Molecule.from_arrays(
    elez=[8,6,6,6,6,6,6,1,1,1,1,1,8,6,6,6,6,6,6,1,1,1,1,1,6,1,1,6,1,1],
    fragment_separators=[12, 24],
    fix_com=True,
    fix_orientation=True,
    fix_symmetry='c1',
    fragment_multiplicities=[2, 2, 1],
    molecular_charge=0,
    molecular_multiplicity=1,
    geom= [
       -1.314653326,      0.551224497,      0.239004021,
       -2.640975091,      0.397603385,      0.016763273,
       -3.485144496,     -0.370483195,      0.811541756,
       -3.154610284,      1.073698082,     -1.088384680,
       -4.835159185,     -0.455310952,      0.491405560,
       -4.498250649,      0.979382302,     -1.392223120,
       -5.350287686,      0.213108300,     -0.604540247,
       -3.108027476,     -0.902447826,      1.673700765,
       -2.478136334,      1.663879503,     -1.693537796,
       -5.485821019,     -1.056637961,      1.115234150,
       -4.885968693,      1.507571894,     -2.255145865,
       -6.402779446,      0.139808397,     -0.846759612,
                                                        
        1.314653326,     -0.551224497,      0.239004021,
        2.640975091,     -0.397603385,      0.016763273,
        3.154610284,     -1.073698082,     -1.088384680,
        3.485144496,      0.370483195,      0.811541756,
        4.498250649,     -0.979382302,     -1.392223120,
        4.835159185,      0.455310952,      0.491405560,
        5.350287686,     -0.213108300,     -0.604540247,
        2.478136334,     -1.663879503,     -1.693537796,
        3.108027476,      0.902447826,      1.673700765,
        4.885968693,     -1.507571894,     -2.255145865,
        5.485821019,      1.056637961,      1.115234150,
        6.402779446,     -0.139808397,     -0.846759612,
                                                        
        0.738124486,      0.136761753,      1.321300587,
        1.167895978,     -0.208871392,      2.269604115,
        0.913184930,      1.214687260,      1.231999767,
       -0.738124486,     -0.136761753,      1.321300587,
       -0.913184930,     -1.214687260,      1.231999767,
       -1.167895978,      0.208871392,      2.269604115])
activate(mol)       
                    
set {               
basis jun-cc-pvdz   
scf_type df
guess sad
freeze_core true
fisapt_do_plot true
}
energy('fisapt0')
--------------------------------------------------------------------------

  Memory set to  11.719 GiB by Python driver.

Scratch directory: C:\Users\Ivan\AppData\Local\Temp/

*** tstart() called on DESKTOP-D4OA462
*** at Thu Nov  9 15:16:16 2023

   => Loading Basis Set <=

    Name: JUN-CC-PVDZ
    Role: ORBITAL
    Keyword: BASIS
    atoms 1, 13                     entry O          line   232 file C:\Users\Ivan\.conda\envs\psi4\lib\share\psi4\basis\jun-cc-pvdz.gbs 
    atoms 2-7, 14-19, 25, 28        entry C          line   164 file C:\Users\Ivan\.conda\envs\psi4\lib\share\psi4\basis\jun-cc-pvdz.gbs 
    atoms 8-12, 20-24, 26-27, 29-30 entry H          line    36 file C:\Users\Ivan\.conda\envs\psi4\lib\share\psi4\basis\jun-cc-pvdz.gbs 


         ---------------------------------------------------------
                                   SCF
               by Justin Turney, Rob Parrish, Andy Simmonett
                          and Daniel G. A. Smith
                              RHF Reference
                        1 Threads,   -288 MiB Core
         ---------------------------------------------------------

  ==> Geometry <==

    Molecular point group: c1
    Full point group: C2

    Geometry (in Angstrom), charge = 0, multiplicity = 1:

       Center              X                  Y                   Z               Mass       
    ------------   -----------------  -----------------  -----------------  -----------------
         O           -1.314653326000     0.551224497000     0.239004021000    15.994914619570
         C           -2.640975091000     0.397603385000     0.016763273000    12.000000000000
         C           -3.485144496000    -0.370483195000     0.811541756000    12.000000000000
         C           -3.154610284000     1.073698082000    -1.088384680000    12.000000000000
         C           -4.835159185000    -0.455310952000     0.491405560000    12.000000000000
         C           -4.498250649000     0.979382302000    -1.392223120000    12.000000000000
         C           -5.350287686000     0.213108300000    -0.604540247000    12.000000000000
         H           -3.108027476000    -0.902447826000     1.673700765000     1.007825032230
         H           -2.478136334000     1.663879503000    -1.693537796000     1.007825032230
         H           -5.485821019000    -1.056637961000     1.115234150000     1.007825032230
         H           -4.885968693000     1.507571894000    -2.255145865000     1.007825032230
         H           -6.402779446000     0.139808397000    -0.846759612000     1.007825032230
         O            1.314653326000    -0.551224497000     0.239004021000    15.994914619570
         C            2.640975091000    -0.397603385000     0.016763273000    12.000000000000
         C            3.154610284000    -1.073698082000    -1.088384680000    12.000000000000
         C            3.485144496000     0.370483195000     0.811541756000    12.000000000000
         C            4.498250649000    -0.979382302000    -1.392223120000    12.000000000000
         C            4.835159185000     0.455310952000     0.491405560000    12.000000000000
         C            5.350287686000    -0.213108300000    -0.604540247000    12.000000000000
         H            2.478136334000    -1.663879503000    -1.693537796000     1.007825032230
         H            3.108027476000     0.902447826000     1.673700765000     1.007825032230
         H            4.885968693000    -1.507571894000    -2.255145865000     1.007825032230
         H            5.485821019000     1.056637961000     1.115234150000     1.007825032230
         H            6.402779446000    -0.139808397000    -0.846759612000     1.007825032230
         C            0.738124486000     0.136761753000     1.321300587000    12.000000000000
         H            1.167895978000    -0.208871392000     2.269604115000     1.007825032230
         H            0.913184930000     1.214687260000     1.231999767000     1.007825032230
         C           -0.738124486000    -0.136761753000     1.321300587000    12.000000000000
         H           -0.913184930000    -1.214687260000     1.231999767000     1.007825032230
         H           -1.167895978000     0.208871392000     2.269604115000     1.007825032230

  Running in c1 symmetry.

  Rotational constants: A =      0.06320  B =      0.00598  C =      0.00576 [cm^-1]
  Rotational constants: A =   1894.69063  B =    179.29581  C =    172.58964 [MHz]
  Nuclear repulsion =  976.603846384386657

  Charge       = 0
  Multiplicity = 1
  Electrons    = 114
  Nalpha       = 57
  Nbeta        = 57

  ==> Algorithm <==

  SCF Algorithm Type is DF.
  DIIS enabled.
  MOM disabled.
  Fractional occupation disabled.
  Guess Type is SAD.
  Energy threshold   = 1.00e-08
  Density threshold  = 1.00e-08
  Integral threshold = 1.00e-12

  ==> Primary Basis <==

  Basis Set: JUN-CC-PVDZ
    Blend: JUN-CC-PVDZ
    Number of shells: 170
    Number of basis functions: 358
    Number of Cartesian functions: 374
    Spherical Harmonics?: true
    Max angular momentum: 2

   => Loading Basis Set <=

    Name: (JUN-CC-PVDZ AUX)
    Role: JKFIT
    Keyword: DF_BASIS_SCF
    atoms 1, 13                     entry O          line   258 file C:\Users\Ivan\.conda\envs\psi4\lib\share\psi4\basis\jun-cc-pvdz-jkfit.gbs 
    atoms 2-7, 14-19, 25, 28        entry C          line   146 file C:\Users\Ivan\.conda\envs\psi4\lib\share\psi4\basis\jun-cc-pvdz-jkfit.gbs 
    atoms 8-12, 20-24, 26-27, 29-30 entry H          line    70 file C:\Users\Ivan\.conda\envs\psi4\lib\share\psi4\basis\jun-cc-pvdz-jkfit.gbs 

  ==> Integral Setup <==

  DFHelper Memory: AOs need 1.265 GiB; user supplied 8.789 GiB. Using in-core AOs.

  ==> MemDFJK: Density-Fitted J/K Matrices <==

    J tasked:                   Yes
    K tasked:                   Yes
    wK tasked:                   No
    OpenMP threads:               1
    Memory [MiB]:              9000
    Algorithm:                 Core
    Schwarz Cutoff:           1E-12
    Mask sparsity (%):      19.1193
    Fitting Condition:        1E-10

   => Auxiliary Basis Set <=

  Basis Set: (JUN-CC-PVDZ AUX)
    Blend: JUN-CC-PVDZ-JKFIT
    Number of shells: 558
    Number of basis functions: 1586
    Number of Cartesian functions: 1806
    Spherical Harmonics?: true
    Max angular momentum: 3

  Minimum eigenvalue in the overlap matrix is 7.0228222706E-06.
  Reciprocal condition number of the overlap matrix is 5.6854000026E-07.
    Using symmetric orthogonalization.

  ==> Pre-Iterations <==

  SCF Guess: Superposition of Atomic Densities via on-the-fly atomic UHF (no occupation information).

   -------------------------
    Irrep   Nso     Nmo    
   -------------------------
     A        358     358 
   -------------------------
    Total     358     358
   -------------------------

  ==> Iterations <==

                           Total Energy        Delta E     RMS |[F,P]|

   @DF-RHF iter SAD:  -687.61126961538400   -6.87611e+02   0.00000e+00 
   @DF-RHF iter   1:  -687.66680180018500   -5.55322e-02   2.22204e-03 DIIS/ADIIS
   @DF-RHF iter   2:  -688.00967508283281   -3.42873e-01   9.89138e-04 DIIS/ADIIS
   @DF-RHF iter   3:  -688.07456969787290   -6.48946e-02   1.92636e-04 DIIS/ADIIS
   @DF-RHF iter   4:  -688.07858590151500   -4.01620e-03   5.76192e-05 DIIS
   @DF-RHF iter   5:  -688.07884596531039   -2.60064e-04   1.54310e-05 DIIS
   @DF-RHF iter   6:  -688.07887413004869   -2.81647e-05   5.36160e-06 DIIS
   @DF-RHF iter   7:  -688.07887758049344   -3.45044e-06   1.78037e-06 DIIS
   @DF-RHF iter   8:  -688.07887815550885   -5.75015e-07   6.01882e-07 DIIS
   @DF-RHF iter   9:  -688.07887825009936   -9.45905e-08   2.53120e-07 DIIS
   @DF-RHF iter  10:  -688.07887826351498   -1.34156e-08   1.09184e-07 DIIS
   @DF-RHF iter  11:  -688.07887826881222   -5.29724e-09   4.64611e-08 DIIS
   @DF-RHF iter  12:  -688.07887826975241   -9.40190e-10   1.70328e-08 DIIS
   @DF-RHF iter  13:  -688.07887826982665   -7.42375e-11   4.81495e-09 DIIS
  Energy and wave function converged.


  ==> Post-Iterations <==

    Orbital Energies [Eh]
    ---------------------

    Doubly Occupied:                                                      

       1A    -20.593177     2A    -20.593175     3A    -11.305772  
       4A    -11.305771     5A    -11.301572     6A    -11.300884  
       7A    -11.245319     8A    -11.245319     9A    -11.243529  
      10A    -11.243529    11A    -11.237175    12A    -11.237175  
      13A    -11.231917    14A    -11.231917    15A    -11.231318  
      16A    -11.231318    17A     -1.435902    18A     -1.420141  
      19A     -1.158076    20A     -1.153547    21A     -1.066521  
      22A     -1.024657    23A     -1.023053    24A     -1.012674  
      25A     -0.983790    26A     -0.892439    27A     -0.840304  
      28A     -0.830483    29A     -0.819617    30A     -0.800340  
      31A     -0.740228    32A     -0.735805    33A     -0.683398  
      34A     -0.679086    35A     -0.673457    36A     -0.652124  
      37A     -0.645532    38A     -0.644377    39A     -0.620812  
      40A     -0.611803    41A     -0.591939    42A     -0.588970  
      43A     -0.576428    44A     -0.546806    45A     -0.531814  
      46A     -0.529347    47A     -0.515745    48A     -0.515380  
      49A     -0.509307    50A     -0.484842    51A     -0.481048  
      52A     -0.471307    53A     -0.468460    54A     -0.342199  
      55A     -0.342091    56A     -0.315200    57A     -0.311961  

    Virtual:                                                              

      58A      0.053858    59A      0.058670    60A      0.067067  
      61A      0.070019    62A      0.074779    63A      0.083335  
      64A      0.084919    65A      0.085833    66A      0.099607  
      67A      0.101653    68A      0.106143    69A      0.107161  
      70A      0.110566    71A      0.110816    72A      0.119427  
      73A      0.123730    74A      0.125940    75A      0.127771  
      76A      0.131712    77A      0.133054    78A      0.138203  
      79A      0.146627    80A      0.150839    81A      0.150941  
      82A      0.157367    83A      0.160063    84A      0.166244  
      85A      0.166832    86A      0.173842    87A      0.188438  
      88A      0.191620    89A      0.196094    90A      0.196984  
      91A      0.203171    92A      0.204538    93A      0.208217  
      94A      0.214104    95A      0.217141    96A      0.219417  
      97A      0.229080    98A      0.233109    99A      0.235063  
     100A      0.243598   101A      0.253924   102A      0.257229  
     103A      0.261497   104A      0.266232   105A      0.271887  
     106A      0.277080   107A      0.279356   108A      0.284303  
     109A      0.289655   110A      0.291437   111A      0.292420  
     112A      0.295309   113A      0.298389   114A      0.316182  
     115A      0.317527   116A      0.324928   117A      0.333995  
     118A      0.336850   119A      0.339486   120A      0.342608  
     121A      0.345552   122A      0.356193   123A      0.365474  
     124A      0.378687   125A      0.382270   126A      0.382774  
     127A      0.385071   128A      0.388483   129A      0.389254  
     130A      0.401704   131A      0.401819   132A      0.408051  
     133A      0.419295   134A      0.422196   135A      0.434458  
     136A      0.435996   137A      0.445812   138A      0.458127  
     139A      0.459681   140A      0.461996   141A      0.467467  
     142A      0.480418   143A      0.490649   144A      0.495607  
     145A      0.500184   146A      0.517806   147A      0.524140  
     148A      0.552985   149A      0.554434   150A      0.563433  
     151A      0.580291   152A      0.590169   153A      0.595097  
     154A      0.623146   155A      0.703273   156A      0.744796  
     157A      0.753222   158A      0.770741   159A      0.784033  
     160A      0.791175   161A      0.812922   162A      0.820100  
     163A      0.821815   164A      0.823508   165A      0.831353  
     166A      0.839283   167A      0.854059   168A      0.859777  
     169A      0.874769   170A      0.882405   171A      0.884795  
     172A      0.889087   173A      0.892513   174A      0.908291  
     175A      0.908709   176A      0.921170   177A      0.924642  
     178A      0.931567   179A      0.934234   180A      0.939653  
     181A      0.949165   182A      0.949396   183A      0.958342  
     184A      0.961273   185A      0.969297   186A      0.970839  
     187A      0.972067   188A      0.978847   189A      0.980243  
     190A      0.980380   191A      0.988800   192A      0.994439  
     193A      0.999496   194A      1.009904   195A      1.021856  
     196A      1.031967   197A      1.043592   198A      1.046491  
     199A      1.049756   200A      1.089576   201A      1.098313  
     202A      1.106822   203A      1.115474   204A      1.151220  
     205A      1.152526   206A      1.161327   207A      1.165918  
     208A      1.166998   209A      1.180048   210A      1.208657  
     211A      1.217033   212A      1.227299   213A      1.237235  
     214A      1.237401   215A      1.247210   216A      1.247614  
     217A      1.261993   218A      1.264650   219A      1.267666  
     220A      1.271386   221A      1.279652   222A      1.286140  
     223A      1.311964   224A      1.317711   225A      1.320293  
     226A      1.323027   227A      1.329670   228A      1.361771  
     229A      1.367079   230A      1.370169   231A      1.372772  
     232A      1.374534   233A      1.387186   234A      1.411242  
     235A      1.472728   236A      1.494341   237A      1.496341  
     238A      1.507114   239A      1.524625   240A      1.550734  
     241A      1.566845   242A      1.582839   243A      1.610205  
     244A      1.627936   245A      1.703432   246A      1.732167  
     247A      1.738117   248A      1.748321   249A      1.757967  
     250A      1.761260   251A      1.769778   252A      1.770089  
     253A      1.795470   254A      1.803549   255A      1.804691  
     256A      1.812423   257A      1.828921   258A      1.837342  
     259A      1.883012   260A      1.883218   261A      1.915666  
     262A      1.917656   263A      1.920252   264A      1.923438  
     265A      1.930400   266A      1.936168   267A      1.952705  
     268A      1.953491   269A      1.955631   270A      1.959584  
     271A      1.961906   272A      1.973509   273A      1.973567  
     274A      1.978018   275A      1.985549   276A      2.013007  
     277A      2.028822   278A      2.040732   279A      2.043619  
     280A      2.052466   281A      2.070690   282A      2.074318  
     283A      2.076640   284A      2.095051   285A      2.097063  
     286A      2.101815   287A      2.111081   288A      2.116848  
     289A      2.127563   290A      2.151759   291A      2.175038  
     292A      2.179136   293A      2.182558   294A      2.184623  
     295A      2.186314   296A      2.187420   297A      2.198594  
     298A      2.209655   299A      2.214452   300A      2.222664  
     301A      2.269943   302A      2.270498   303A      2.283672  
     304A      2.291312   305A      2.319080   306A      2.320168  
     307A      2.358819   308A      2.390183   309A      2.399857  
     310A      2.409571   311A      2.417359   312A      2.426017  
     313A      2.453305   314A      2.474628   315A      2.499246  
     316A      2.503370   317A      2.520753   318A      2.520758  
     319A      2.596768   320A      2.622895   321A      2.635237  
     322A      2.640053   323A      2.750886   324A      2.773775  
     325A      2.797214   326A      2.800012   327A      2.810545  
     328A      2.812530   329A      2.812573   330A      2.845121  
     331A      2.849324   332A      2.862813   333A      2.868667  
     334A      2.873556   335A      2.920457   336A      2.977575  
     337A      3.022765   338A      3.024011   339A      3.051044  
     340A      3.051564   341A      3.100358   342A      3.100892  
     343A      3.188265   344A      3.195090   345A      3.268283  
     346A      3.281469   347A      3.295759   348A      3.299283  
     349A      3.399599   350A      3.482330   351A      3.544158  
     352A      3.603199   353A      3.750988   354A      3.773590  
     355A      3.869542   356A      3.897887   357A      4.118113  
     358A      4.147260  

    Final Occupation by Irrep:
              A 
    DOCC [    57 ]
    NA   [    57 ]
    NB   [    57 ]

  @DF-RHF Final Energy:  -688.07887826982665

   => Energetics <=

    Nuclear Repulsion Energy =            976.6038463843866566
    One-Electron Energy =               -2873.2657028344365244
    Two-Electron Energy =                1208.5829781802233356
    Total Energy =                       -688.0788782698266459

Computation Completed


Properties will be evaluated at   0.000000,   0.000000,   0.000000 [a0]

Properties computed using the SCF density matrix


 Multipole Moments:

 ------------------------------------------------------------------------------------
     Multipole            Electronic (a.u.)      Nuclear  (a.u.)        Total (a.u.)
 ------------------------------------------------------------------------------------

 L = 1.  Multiply by 2.5417464519 to convert [e a0] to [Debye]
 Dipole X            :         -0.0000000            0.0000000           -0.0000000
 Dipole Y            :          0.0000000            0.0000000            0.0000000
 Dipole Z            :         -2.0413802            2.8055118            0.7641316
 Magnitude           :                                                    0.7641316

 ------------------------------------------------------------------------------------

*** tstop() called on DESKTOP-D4OA462 at Thu Nov  9 15:16:54 2023
Module time:
	user time   =        nan seconds =        nan minutes
	system time =        nan seconds =        nan minutes
	total time  =         38 seconds =       0.63 minutes
Total time:
	user time   =        nan seconds =        nan minutes
	system time =        nan seconds =        nan minutes
	total time  =         38 seconds =       0.63 minutes
  Constructing Basis Sets for FISAPT...

   => Loading Basis Set <=

    Name: (JUN-CC-PVDZ AUX)
    Role: JKFIT
    Keyword: DF_BASIS_SCF
    atoms 1, 13                     entry O          line   258 file C:\Users\Ivan\.conda\envs\psi4\lib\share\psi4\basis\jun-cc-pvdz-jkfit.gbs 
    atoms 2-7, 14-19, 25, 28        entry C          line   146 file C:\Users\Ivan\.conda\envs\psi4\lib\share\psi4\basis\jun-cc-pvdz-jkfit.gbs 
    atoms 8-12, 20-24, 26-27, 29-30 entry H          line    70 file C:\Users\Ivan\.conda\envs\psi4\lib\share\psi4\basis\jun-cc-pvdz-jkfit.gbs 

   => Loading Basis Set <=

    Name: (JUN-CC-PVDZ AUX)
    Role: RIFIT
    Keyword: DF_BASIS_SAPT
    atoms 1, 13                     entry O          line   188 file C:\Users\Ivan\.conda\envs\psi4\lib\share\psi4\basis\jun-cc-pvdz-ri.gbs 
    atoms 2-7, 14-19, 25, 28        entry C          line   100 file C:\Users\Ivan\.conda\envs\psi4\lib\share\psi4\basis\jun-cc-pvdz-ri.gbs 
    atoms 8-12, 20-24, 26-27, 29-30 entry H          line    30 file C:\Users\Ivan\.conda\envs\psi4\lib\share\psi4\basis\jun-cc-pvdz-ri.gbs 

   => Loading Basis Set <=

    Name: CC-PVTZ-MINAO
    Role: ORBITAL
    Keyword: BASIS
    atoms 1, 13                     entry O          line   179 file C:\Users\Ivan\.conda\envs\psi4\lib\share\psi4\basis\cc-pvtz-minao.gbs 
    atoms 2-7, 14-19, 25, 28        entry C          line   119 file C:\Users\Ivan\.conda\envs\psi4\lib\share\psi4\basis\cc-pvtz-minao.gbs 
    atoms 8-12, 20-24, 26-27, 29-30 entry H          line    20 file C:\Users\Ivan\.conda\envs\psi4\lib\share\psi4\basis\cc-pvtz-minao.gbs 

	 --------------------------------------------
	                    FISAPT0                  
	                  Rob Parrish                
	 --------------------------------------------

    Do F-SAPT =         Yes
    Do Plot   =         Yes
    Memory    =      10.547 [GiB]

  ==> Localization (IBO) <==

  ==> IBO Localizer 2 <==

    MinAO Basis = CC-PVTZ-MINAO
    Use Ghosts  =       FALSE
    Use Stars   =       FALSE
    Condition   =   1.000E-07
    Power       =           4
    Convergence =   1.000E-12
    Maxiter     =         200

    @IBO Iter:                   Metric       Gradient
    @IBO    1:   1.1878586967885787E+00   1.788128E+00
    @IBO    2:   2.1462135268955760E+00   1.159022E+00
    @IBO    3:   2.2011546008570928E+00   7.216255E-01
    @IBO    4:   2.2074450654521538E+00   5.757551E-02
    @IBO    5:   2.2074749787484822E+00   9.295664E-04
    @IBO    6:   2.2074749917831329E+00   8.863915E-05
    @IBO    7:   2.2074749919796983E+00   1.471257E-05
    @IBO    8:   2.2074749919861620E+00   2.829795E-06
    @IBO    9:   2.2074749919864254E+00   5.786521E-07
    @IBO   10:   2.2074749919864360E+00   1.202677E-07
    @IBO   11:   2.2074749919864369E+00   2.517270E-08
    @IBO   12:   2.2074749919864369E+00   5.296934E-09
    @IBO   13:   2.2074749919864369E+00   1.120665E-09
    @IBO   14:   2.2074749919864369E+00   2.383759E-10
    @IBO   15:   2.2074749919864369E+00   5.095597E-11
    @IBO   16:   2.2074749919864369E+00   1.093912E-11
    @IBO   17:   2.2074749919864369E+00   2.356680E-12
    @IBO   18:   2.2074749919864369E+00   5.091443E-13

    IBO Localizer 2 converged.

  ==> Partitioning <==

   => Atomic Partitioning <= 

    Monomer A:  12 atoms
    Monomer B:  12 atoms
    Monomer C:   6 atoms

   => Link Bond Identification <=

    Link Bond Selection = AUTOMATIC

    Charge Completeness = 0.800

    Total Link Bonds = 2

    --------------------------
    N     Orb Type Aind1 Aind2
    --------------------------
    1      35   AC     1    28
    2      45   BC    13    25
    --------------------------

   => Link Bond Assignment <=

    Link Bond Assignment      = C

   => Partition Summary <=

    Monomer A:  0 charge,  48 protons,  48 electrons,  24 docc
    Monomer B:  0 charge,  48 protons,  48 electrons,  24 docc
    Monomer C:  0 charge,  18 protons,  18 electrons,   9 docc

  ==> Overlap Integrals <==

  ==> Kinetic Integrals <==

  ==> Nuclear Integrals <==

    Nuclear Repulsion Tot:   9.7660384638438643E+02 [Eh]

  ==> Coulomb Integrals <==

  DFHelper Memory: AOs need 1.265 GiB; user supplied 10.544 GiB. Using in-core AOs.

  ==> MemDFJK: Density-Fitted J/K Matrices <==

    J tasked:                   Yes
    K tasked:                   Yes
    wK tasked:                   No
    OpenMP threads:               1
    Memory [MiB]:             10800
    Algorithm:                 Core
    Schwarz Cutoff:           1E-12
    Mask sparsity (%):      19.1193
    Fitting Condition:        1E-10

   => Auxiliary Basis Set <=

  Basis Set: (JUN-CC-PVDZ AUX)
    Blend: JUN-CC-PVDZ-JKFIT
    Number of shells: 558
    Number of basis functions: 1586
    Number of Cartesian functions: 1806
    Spherical Harmonics?: true
    Max angular momentum: 3

  ==> Relaxed SCF Equations <==

  ==> SCF A: <==

    Maxiter =         100
    E Tol   =   1.000E-08
    D Tol   =   1.000E-08

    Max DIIS Vectors = 10

    Iter   N:                        E          dE         |D|
    Iter   1:  -2.9742200261448289E+02  -2.974E+02   2.623E-04 
    Iter   2:  -2.9742359591795594E+02  -1.593E-03   1.603E-05 DIIS
    Iter   3:  -2.9742361908266855E+02  -2.316E-05   4.489E-06 DIIS
    Iter   4:  -2.9742362089515058E+02  -1.812E-06   1.826E-06 DIIS
    Iter   5:  -2.9742362123208471E+02  -3.369E-07   4.809E-07 DIIS
    Iter   6:  -2.9742362127114598E+02  -3.906E-08   2.314E-07 DIIS
    Iter   7:  -2.9742362128130412E+02  -1.016E-08   9.934E-08 DIIS
    Iter   8:  -2.9742362128443568E+02  -3.132E-09   4.779E-08 DIIS
    Iter   9:  -2.9742362128523439E+02  -7.987E-10   1.461E-08 DIIS
    Iter  10:  -2.9742362128530505E+02  -7.066E-11   3.010E-09 DIIS

    FISAPTSCF Converged.

    Final SCF Energy:  -2.9742362128530505E+02 [Eh]

   => Occupied Orbital Energies <=

       1  -20.589496     2  -11.303598     3  -11.244328  
       4  -11.242740     5  -11.235426     6  -11.230750  
       7  -11.230187     8   -1.234440     9   -1.128875  
      10   -1.021578    11   -0.970726    12   -0.834014  
      13   -0.792093    14   -0.691332    15   -0.653636  
      16   -0.618302    17   -0.590277    18   -0.588693  
      19   -0.578874    20   -0.516357    21   -0.493567  
      22   -0.482164    23   -0.341460    24   -0.313005  

   => Virtual Orbital Energies <=

      25    0.033647    26    0.052687    27    0.057460  
      28    0.064090    29    0.067743    30    0.077312  
      31    0.080713    32    0.082382    33    0.092997  
      34    0.097462    35    0.099890    36    0.107463  
      37    0.108570    38    0.109856    39    0.117320  
      40    0.121869    41    0.123913    42    0.127487  
      43    0.132802    44    0.138002    45    0.141439  
      46    0.144770    47    0.151423    48    0.156027  
      49    0.159355    50    0.163282    51    0.165055  
      52    0.167040    53    0.173558    54    0.173710  
      55    0.181606    56    0.186557    57    0.191318  
      58    0.194812    59    0.199729    60    0.203859  
      61    0.207034    62    0.212030    63    0.216800  
      64    0.220096    65    0.223156    66    0.231122  
      67    0.237075    68    0.245661    69    0.252668  
      70    0.255347    71    0.259346    72    0.267581  
      73    0.272096    74    0.272754    75    0.282447  
      76    0.285355    77    0.289795    78    0.292859  
      79    0.293695    80    0.299425    81    0.305251  
      82    0.316971    83    0.327248    84    0.338615  
      85    0.342456    86    0.355409    87    0.365162  
      88    0.368572    89    0.377059    90    0.380620  
      91    0.386201    92    0.393651    93    0.394852  
      94    0.400567    95    0.412524    96    0.419978  
      97    0.428100    98    0.433879    99    0.438276  
     100    0.439150   101    0.449539   102    0.454869  
     103    0.454946   104    0.464599   105    0.469826  
     106    0.470527   107    0.475912   108    0.487260  
     109    0.491393   110    0.500635   111    0.514425  
     112    0.522942   113    0.527821   114    0.538867  
     115    0.554495   116    0.554889   117    0.568157  
     118    0.582452   119    0.594486   120    0.598928  
     121    0.616297   122    0.637897   123    0.643754  
     124    0.654073   125    0.669143   126    0.705284  
     127    0.735630   128    0.745984   129    0.747597  
     130    0.763409   131    0.775334   132    0.785050  
     133    0.800086   134    0.817147   135    0.822605  
     136    0.828211   137    0.841676   138    0.857984  
     139    0.874499   140    0.881227   141    0.890479  
     142    0.901394   143    0.906303   144    0.911449  
     145    0.926437   146    0.938055   147    0.942879  
     148    0.945977   149    0.956683   150    0.965394  
     151    0.971204   152    0.975411   153    0.984397  
     154    0.987315   155    0.988057   156    0.993998  
     157    1.007526   158    1.025802   159    1.033261  
     160    1.037016   161    1.057347   162    1.079714  
     163    1.105307   164    1.122810   165    1.132242  
     166    1.146827   167    1.154766   168    1.163510  
     169    1.185092   170    1.202956   171    1.222724  
     172    1.236705   173    1.243695   174    1.248211  
     175    1.263086   176    1.271828   177    1.275705  
     178    1.302690   179    1.317668   180    1.326310  
     181    1.346761   182    1.353247   183    1.368879  
     184    1.375369   185    1.400078   186    1.440015  
     187    1.502957   188    1.511077   189    1.543345  
     190    1.590562   191    1.602860   192    1.647021  
     193    1.653671   194    1.681828   195    1.706671  
     196    1.716093   197    1.747427   198    1.749060  
     199    1.758197   200    1.767510   201    1.771134  
     202    1.785864   203    1.796659   204    1.801766  
     205    1.806125   206    1.807983   207    1.812487  
     208    1.826650   209    1.863345   210    1.867361  
     211    1.885660   212    1.903598   213    1.912110  
     214    1.921813   215    1.926805   216    1.930238  
     217    1.936107   218    1.950112   219    1.956920  
     220    1.962811   221    1.970101   222    1.974563  
     223    1.980245   224    1.988470   225    1.998166  
     226    2.007193   227    2.016837   228    2.020789  
     229    2.038173   230    2.048281   231    2.050769  
     232    2.063880   233    2.075658   234    2.085561  
     235    2.101547   236    2.104677   237    2.108540  
     238    2.129356   239    2.136975   240    2.144527  
     241    2.160527   242    2.178726   243    2.181531  
     244    2.185674   245    2.187323   246    2.190376  
     247    2.202986   248    2.206888   249    2.212546  
     250    2.217134   251    2.230391   252    2.245546  
     253    2.259993   254    2.273343   255    2.285924  
     256    2.293789   257    2.310374   258    2.322632  
     259    2.337445   260    2.348081   261    2.377251  
     262    2.398601   263    2.408584   264    2.420812  
     265    2.425596   266    2.443666   267    2.458158  
     268    2.470756   269    2.482247   270    2.492969  
     271    2.503194   272    2.521871   273    2.523578  
     274    2.536526   275    2.553422   276    2.584868  
     277    2.603816   278    2.607028   279    2.644344  
     280    2.654079   281    2.695293   282    2.707065  
     283    2.761864   284    2.772829   285    2.791909  
     286    2.801493   287    2.811557   288    2.819949  
     289    2.827215   290    2.844528   291    2.853745  
     292    2.866282   293    2.907483   294    2.915346  
     295    2.934455   296    2.968863   297    3.001868  
     298    3.028043   299    3.048892   300    3.058009  
     301    3.101564   302    3.119506   303    3.123088  
     304    3.134415   305    3.138115   306    3.194643  
     307    3.199369   308    3.248485   309    3.265696  
     310    3.293165   311    3.297273   312    3.410552  
     313    3.448582   314    3.473140   315    3.560499  
     316    3.572483   317    3.586873   318    3.654594  
     319    3.704667   320    3.768493   321    3.869130  
     322    3.888815   323    4.134371   324    4.148399  
     325    4.284263   326    4.307645   327    4.351207  
     328    4.355524   329    4.451036   330    4.527619  
     331    4.596333   332    4.769571   333    4.930427  
     334    5.067067   335    5.089105   336    5.404012  
     337    5.414078   338    5.477479   339    5.499106  
     340    5.574175   341    5.703816   342    6.045263  
     343   17.979752   344   18.129022   345   18.143767  
     346   18.590922   347   18.619980   348   19.267435  
     349   26.481913  

  ==> SCF B: <==

    Maxiter =         100
    E Tol   =   1.000E-08
    D Tol   =   1.000E-08

    Max DIIS Vectors = 10

    Iter   N:                        E          dE         |D|
    Iter   1:  -2.9742200261627215E+02  -2.974E+02   2.623E-04 
    Iter   2:  -2.9742359591974531E+02  -1.593E-03   1.603E-05 DIIS
    Iter   3:  -2.9742361908445741E+02  -2.316E-05   4.489E-06 DIIS
    Iter   4:  -2.9742362089693944E+02  -1.812E-06   1.826E-06 DIIS
    Iter   5:  -2.9742362123387414E+02  -3.369E-07   4.809E-07 DIIS
    Iter   6:  -2.9742362127293421E+02  -3.906E-08   2.314E-07 DIIS
    Iter   7:  -2.9742362128309276E+02  -1.016E-08   9.934E-08 DIIS
    Iter   8:  -2.9742362128622528E+02  -3.133E-09   4.779E-08 DIIS
    Iter   9:  -2.9742362128702268E+02  -7.974E-10   1.461E-08 DIIS
    Iter  10:  -2.9742362128709442E+02  -7.174E-11   3.010E-09 DIIS

    FISAPTSCF Converged.

    Final SCF Energy:  -2.9742362128709442E+02 [Eh]

   => Occupied Orbital Energies <=

       1  -20.589496     2  -11.303598     3  -11.244328  
       4  -11.242740     5  -11.235426     6  -11.230750  
       7  -11.230187     8   -1.234440     9   -1.128875  
      10   -1.021578    11   -0.970726    12   -0.834014  
      13   -0.792093    14   -0.691332    15   -0.653636  
      16   -0.618302    17   -0.590277    18   -0.588693  
      19   -0.578874    20   -0.516357    21   -0.493567  
      22   -0.482164    23   -0.341460    24   -0.313005  

   => Virtual Orbital Energies <=

      25    0.033647    26    0.052687    27    0.057460  
      28    0.064090    29    0.067743    30    0.077312  
      31    0.080713    32    0.082382    33    0.092997  
      34    0.097462    35    0.099890    36    0.107463  
      37    0.108570    38    0.109856    39    0.117320  
      40    0.121869    41    0.123913    42    0.127487  
      43    0.132802    44    0.138002    45    0.141439  
      46    0.144770    47    0.151423    48    0.156027  
      49    0.159355    50    0.163282    51    0.165055  
      52    0.167040    53    0.173558    54    0.173710  
      55    0.181606    56    0.186557    57    0.191318  
      58    0.194812    59    0.199729    60    0.203859  
      61    0.207034    62    0.212030    63    0.216800  
      64    0.220096    65    0.223156    66    0.231122  
      67    0.237075    68    0.245661    69    0.252668  
      70    0.255347    71    0.259346    72    0.267581  
      73    0.272096    74    0.272754    75    0.282447  
      76    0.285355    77    0.289795    78    0.292859  
      79    0.293696    80    0.299426    81    0.305251  
      82    0.316971    83    0.327248    84    0.338615  
      85    0.342457    86    0.355409    87    0.365162  
      88    0.368572    89    0.377059    90    0.380620  
      91    0.386201    92    0.393651    93    0.394852  
      94    0.400567    95    0.412524    96    0.419978  
      97    0.428100    98    0.433879    99    0.438276  
     100    0.439150   101    0.449539   102    0.454868  
     103    0.454946   104    0.464599   105    0.469826  
     106    0.470527   107    0.475912   108    0.487260  
     109    0.491393   110    0.500635   111    0.514425  
     112    0.522942   113    0.527821   114    0.538867  
     115    0.554495   116    0.554889   117    0.568157  
     118    0.582452   119    0.594486   120    0.598928  
     121    0.616297   122    0.637897   123    0.643754  
     124    0.654073   125    0.669143   126    0.705284  
     127    0.735630   128    0.745984   129    0.747597  
     130    0.763409   131    0.775334   132    0.785050  
     133    0.800086   134    0.817147   135    0.822605  
     136    0.828211   137    0.841676   138    0.857984  
     139    0.874499   140    0.881227   141    0.890479  
     142    0.901394   143    0.906303   144    0.911449  
     145    0.926437   146    0.938055   147    0.942879  
     148    0.945977   149    0.956683   150    0.965394  
     151    0.971204   152    0.975411   153    0.984397  
     154    0.987315   155    0.988057   156    0.993998  
     157    1.007526   158    1.025802   159    1.033261  
     160    1.037016   161    1.057347   162    1.079714  
     163    1.105307   164    1.122810   165    1.132242  
     166    1.146827   167    1.154766   168    1.163510  
     169    1.185092   170    1.202956   171    1.222724  
     172    1.236705   173    1.243695   174    1.248211  
     175    1.263086   176    1.271828   177    1.275705  
     178    1.302690   179    1.317668   180    1.326310  
     181    1.346761   182    1.353247   183    1.368879  
     184    1.375369   185    1.400078   186    1.440015  
     187    1.502957   188    1.511077   189    1.543345  
     190    1.590562   191    1.602860   192    1.647021  
     193    1.653671   194    1.681828   195    1.706671  
     196    1.716093   197    1.747427   198    1.749060  
     199    1.758197   200    1.767510   201    1.771134  
     202    1.785864   203    1.796659   204    1.801766  
     205    1.806125   206    1.807983   207    1.812487  
     208    1.826650   209    1.863345   210    1.867361  
     211    1.885660   212    1.903598   213    1.912110  
     214    1.921813   215    1.926805   216    1.930238  
     217    1.936107   218    1.950112   219    1.956920  
     220    1.962811   221    1.970101   222    1.974563  
     223    1.980245   224    1.988470   225    1.998166  
     226    2.007193   227    2.016837   228    2.020789  
     229    2.038173   230    2.048281   231    2.050769  
     232    2.063880   233    2.075658   234    2.085561  
     235    2.101547   236    2.104677   237    2.108540  
     238    2.129356   239    2.136975   240    2.144527  
     241    2.160527   242    2.178726   243    2.181531  
     244    2.185674   245    2.187323   246    2.190376  
     247    2.202986   248    2.206888   249    2.212546  
     250    2.217134   251    2.230391   252    2.245546  
     253    2.259993   254    2.273343   255    2.285924  
     256    2.293789   257    2.310374   258    2.322632  
     259    2.337445   260    2.348081   261    2.377251  
     262    2.398601   263    2.408584   264    2.420812  
     265    2.425596   266    2.443666   267    2.458158  
     268    2.470756   269    2.482247   270    2.492969  
     271    2.503194   272    2.521871   273    2.523578  
     274    2.536526   275    2.553422   276    2.584868  
     277    2.603816   278    2.607028   279    2.644344  
     280    2.654079   281    2.695293   282    2.707065  
     283    2.761864   284    2.772829   285    2.791909  
     286    2.801493   287    2.811557   288    2.819949  
     289    2.827215   290    2.844528   291    2.853745  
     292    2.866282   293    2.907483   294    2.915346  
     295    2.934455   296    2.968863   297    3.001868  
     298    3.028043   299    3.048892   300    3.058009  
     301    3.101564   302    3.119506   303    3.123088  
     304    3.134415   305    3.138115   306    3.194643  
     307    3.199369   308    3.248485   309    3.265696  
     310    3.293165   311    3.297273   312    3.410552  
     313    3.448582   314    3.473140   315    3.560499  
     316    3.572483   317    3.586873   318    3.654594  
     319    3.704667   320    3.768493   321    3.869130  
     322    3.888815   323    4.134371   324    4.148399  
     325    4.284263   326    4.307645   327    4.351207  
     328    4.355524   329    4.451036   330    4.527619  
     331    4.596333   332    4.769571   333    4.930427  
     334    5.067067   335    5.089105   336    5.404012  
     337    5.414078   338    5.477479   339    5.499106  
     340    5.574175   341    5.703816   342    6.045263  
     343   17.979752   344   18.129022   345   18.143767  
     346   18.590922   347   18.619980   348   19.267435  
     349   26.481913  

  ==> Frozen Core <==


    ------------------
    Range      A     B
    ------------------
    nbf      358   358
    nmo      349   349
    nocc      24    24
    nvir     325   325
    nfocc      7     7
    naocc     17    17
    navir    325   325
    nfvir      0     0
    ------------------

  ==> Unification <==

  ==> dHF <==

    E ABC(HF) =  -6.8807887826982665E+02 [Eh]
    E AC(0)   =  -3.8090951155386625E+02 [Eh]
    E BC(0)   =  -3.8090951155602392E+02 [Eh]
    E A(0)    =  -2.8268110444620874E+02 [Eh]
    E B(0)    =  -2.8268110444802250E+02 [Eh]
    E AC(HF)  =  -3.8090789288304501E+02 [Eh]
    E BC(HF)  =  -3.8090789288520267E+02 [Eh]
    E AB(HF)  =  -5.6534461732348529E+02 [Eh]
    E A(HF)   =  -2.8267335080663776E+02 [Eh]
    E B(HF)   =  -2.8267335080846186E+02 [Eh]
    E C       =  -7.3734823206799817E+01 [Eh]
    E HF      =   5.3216332637049391E-03 [Eh]

  ==> Electrostatics <==

    Elst10,r            =     0.005326361522 [Eh]

  ==> Exchange <==

    Exch10(S^2)         =     0.000551788483 [Eh]
    Exch10              =     0.000552102230 [Eh]

  ==> Induction <==

    Ind20,u (A<-B)      =    -0.000250424201 [Eh]
    Ind20,u (B<-A)      =    -0.000250424200 [Eh]
    Ind20,u             =    -0.000500848401 [Eh]
    Exch-Ind20,u (A<-B) =     0.000039992950 [Eh]
    Exch-Ind20,u (B<-A) =     0.000039992950 [Eh]
    Exch-Ind20,u        =     0.000079985901 [Eh]

  ==> CPHF Iterations <==

    Maxiter     =         100
    Convergence =   1.000E-08

    -----------------------------------------
    Iter   Monomer A    Monomer B    Time [s]
    -----------------------------------------
    1      1.990E-01    1.990E-01           2
    2      6.120E-02    6.120E-02           3
    3      1.817E-02    1.817E-02           5
    4      8.627E-03    8.627E-03           7
    5      4.085E-03    4.085E-03           9
    6      1.818E-03    1.818E-03          11
    7      5.341E-04    5.341E-04          13
    8      1.450E-04    1.450E-04          15
    9      2.945E-05    2.945E-05          16
    10     8.032E-06    8.032E-06          18
    11     2.224E-06    2.224E-06          20
    12     6.918E-07    6.918E-07          22
    13     2.086E-07    2.086E-07          24
    14     6.802E-08    6.802E-08          26
    15     2.507E-08    2.507E-08          27
    16     8.246E-09*   8.246E-09*         29
    -----------------------------------------

    Ind20,r (A<-B)      =    -0.000285336655 [Eh]
    Ind20,r (B<-A)      =    -0.000285336655 [Eh]
    Ind20,r             =    -0.000570673309 [Eh]
    Exch-Ind20,r (A<-B) =     0.000046016618 [Eh]
    Exch-Ind20,r (B<-A) =     0.000046016617 [Eh]
    Exch-Ind20,r        =     0.000092033235 [Eh]

  ==> F-SAPT Localization (IBO) <==

  Local Orbitals for Monomer A:

  ==> IBO Localizer 2 <==

    MinAO Basis = CC-PVTZ-MINAO
    Use Ghosts  =       FALSE
    Use Stars   =       FALSE
    Condition   =   1.000E-07
    Power       =           4
    Convergence =   1.000E-12
    Maxiter     =        1000

    @IBO Iter:                   Metric       Gradient
    @IBO    1:   1.6243614361534484E+00   1.359641E+00
    @IBO    2:   1.7449484207041044E+00   7.536695E-01
    @IBO    3:   1.7905904852203891E+00   3.830004E-01
    @IBO    4:   1.7944580821786995E+00   7.399178E-02
    @IBO    5:   1.7945181293564714E+00   5.288804E-04
    @IBO    6:   1.7945181356586104E+00   2.790931E-05
    @IBO    7:   1.7945181357305826E+00   4.784332E-06
    @IBO    8:   1.7945181357331084E+00   9.930451E-07
    @IBO    9:   1.7945181357332141E+00   2.259306E-07
    @IBO   10:   1.7945181357332189E+00   5.284442E-08
    @IBO   11:   1.7945181357332192E+00   1.228797E-08
    @IBO   12:   1.7945181357332192E+00   2.811386E-09
    @IBO   13:   1.7945181357332192E+00   6.322574E-10
    @IBO   14:   1.7945181357332192E+00   1.400192E-10
    @IBO   15:   1.7945181357332192E+00   3.060502E-11
    @IBO   16:   1.7945181357332187E+00   6.616193E-12
    @IBO   17:   1.7945181357332189E+00   1.417057E-12
    @IBO   18:   1.7945181357332189E+00   3.011030E-13

    IBO Localizer 2 converged.

  Local Orbitals for Monomer B:

  ==> IBO Localizer 2 <==

    MinAO Basis = CC-PVTZ-MINAO
    Use Ghosts  =       FALSE
    Use Stars   =       FALSE
    Condition   =   1.000E-07
    Power       =           4
    Convergence =   1.000E-12
    Maxiter     =        1000

    @IBO Iter:                   Metric       Gradient
    @IBO    1:   1.6243614356858005E+00   1.359641E+00
    @IBO    2:   1.7449484206986683E+00   7.536695E-01
    @IBO    3:   1.7905904852286920E+00   3.830004E-01
    @IBO    4:   1.7944580821835761E+00   7.399178E-02
    @IBO    5:   1.7945181293609265E+00   5.288804E-04
    @IBO    6:   1.7945181356630651E+00   2.790931E-05
    @IBO    7:   1.7945181357350373E+00   4.784333E-06
    @IBO    8:   1.7945181357375632E+00   9.930452E-07
    @IBO    9:   1.7945181357376692E+00   2.259306E-07
    @IBO   10:   1.7945181357376740E+00   5.284442E-08
    @IBO   11:   1.7945181357376743E+00   1.228797E-08
    @IBO   12:   1.7945181357376740E+00   2.811386E-09
    @IBO   13:   1.7945181357376740E+00   6.322574E-10
    @IBO   14:   1.7945181357376743E+00   1.400192E-10
    @IBO   15:   1.7945181357376745E+00   3.060504E-11
    @IBO   16:   1.7945181357376743E+00   6.616228E-12
    @IBO   17:   1.7945181357376743E+00   1.417085E-12
    @IBO   18:   1.7945181357376743E+00   3.011297E-13

    IBO Localizer 2 converged.

  ==> F-SAPT Electrostatics <==

  DFHelper Memory: AOs need 1.554 GiB; user supplied 10.547 GiB. Using in-core AOs.

  ==> DFHelper <==
    NBF:                             358
    NAux:                           1586
    Schwarz Cutoff:                1E-12
    Mask sparsity (%):                19
    DFH Avail. Memory [GiB]:      10.547
    OpenMP threads:                    1
    Algorithm:                DIRECT_iaQ
    AO Core:                        True
    MO Core:                       False
    Hold Metric:                   False
    Metric Power:                 -0.500
    Fitting Condition:             1E-12
    Q Shell Max:                       7


    Elst10,r            =     0.005326361848 [Eh]

  ==> F-SAPT Exchange <==

    Exch10(S^2)         =     0.000551788483 [Eh]

    Scaling F-SAPT Exch10(S^2) by   1.001E+00 to match Exch10

  ==> F-SAPT Induction <==

    Ind20,u (A<-B)      =    -0.000250424201 [Eh]
    Ind20,u (B<-A)      =    -0.000250424200 [Eh]
    Ind20,u             =    -0.000500848401 [Eh]
    Exch-Ind20,u (A<-B) =     0.000039992950 [Eh]
    Exch-Ind20,u (B<-A) =     0.000039992950 [Eh]
    Exch-Ind20,u        =     0.000079985901 [Eh]

    Scaling for delta HF        =   1.163E+00
    Scaling for response (A<-B) =   1.137E+00
    Scaling for response (B<-A) =   1.137E+00
    Scaling for total (A<-B)    =   1.323E+00
    Scaling for total (B<-A)    =   1.323E+00

  ==> F-SAPT Dispersion <==

  DFHelper Memory: AOs need 1.213 GiB; user supplied 10.541 GiB. Using in-core AOs.

  ==> DFHelper <==
    NBF:                             358
    NAux:                           1236
    Schwarz Cutoff:                1E-12
    Mask sparsity (%):                19
    DFH Avail. Memory [GiB]:      10.541
    OpenMP threads:                    1
    Algorithm:                DIRECT_iaQ
    AO Core:                        True
    MO Core:                       False
    Hold Metric:                   False
    Metric Power:                 -0.500
    Fitting Condition:             1E-12
    Q Shell Max:                       7


    1415577600 doubles - 1587685 overhead leaves 1413989915 for dispersion
    Processing a single (r,s) pair requires 168096 doubles
    325 values of r processed in 1 blocks of 325
    325 values of s processed in 1 blocks of 325

    Disp20              =    -0.001346143732 [Eh]
    Exch-Disp20         =     0.000033352008 [Eh]

  ==> F-SAPT Output <==

    F-SAPT Data Filepath = fsapt/

  ==> Scalar Field Plots <==

    F-SAPT Plot Filepath = plot/

  ==> CubicScalarGrid <==

    Filepath     = plot/
    Total Points =           993384
    XYZ Blocking =               10
    X Points     =              162
    Y Points     =               73
    Z Points     =               84
    X Spacing    =        2.000E-01
    Y Spacing    =        2.000E-01
    Z Spacing    =        2.000E-01
    X Minimum    =       -1.610E+01
    Y Minimum    =       -7.200E+00
    Z Minimum    =       -8.286E+00
    X Maximum    =        1.610E+01
    Y Maximum    =        7.200E+00
    Z Maximum    =        8.314E+00

  Basis Set: JUN-CC-PVDZ
    Blend: JUN-CC-PVDZ
    Number of shells: 170
    Number of basis functions: 358
    Number of Cartesian functions: 374
    Spherical Harmonics?: true
    Max angular momentum: 2

*********************************************************************************************************************
When computing potential integrals with different bra and ket basis, the atom definition is taken from the bra basis.
*********************************************************************************************************************
*********************************************************************************************************************
When computing potential integrals with different bra and ket basis, the atom definition is taken from the bra basis.
*********************************************************************************************************************
*********************************************************************************************************************
When computing potential integrals with different bra and ket basis, the atom definition is taken from the bra basis.
*********************************************************************************************************************
  ==> Results <==


    SAPT Results  
  --------------------------------------------------------------------------------------------------------
    Electrostatics                  5.32636152 [mEh]       3.34234232 [kcal/mol]      13.98436025 [kJ/mol]
      Elst10,r                      5.32636152 [mEh]       3.34234232 [kcal/mol]      13.98436025 [kJ/mol]

    Exchange                        0.55210223 [mEh]       0.34644938 [kcal/mol]       1.44954421 [kJ/mol]
      Exch10                        0.55210223 [mEh]       0.34644938 [kcal/mol]       1.44954421 [kJ/mol]
      Exch10(S^2)                   0.55178848 [mEh]       0.34625250 [kcal/mol]       1.44872046 [kJ/mol]

    Induction                      -0.55683049 [mEh]      -0.34941641 [kcal/mol]      -1.46195825 [kJ/mol]
      Ind20,r                      -0.57067331 [mEh]      -0.35810291 [kcal/mol]      -1.49830257 [kJ/mol]
      Exch-Ind20,r                  0.09203323 [mEh]       0.05775173 [kcal/mol]       0.24163323 [kJ/mol]
      delta HF,r (2)               -0.07819041 [mEh]      -0.04906523 [kcal/mol]      -0.20528891 [kJ/mol]
      Induction (A<-B)             -0.27841524 [mEh]      -0.17470820 [kcal/mol]      -0.73097912 [kJ/mol]
      Induction (B<-A)             -0.27841524 [mEh]      -0.17470820 [kcal/mol]      -0.73097912 [kJ/mol]

    Dispersion                     -1.31279172 [mEh]      -0.82378924 [kcal/mol]      -3.44673419 [kJ/mol]
      Disp20                       -1.34614373 [mEh]      -0.84471794 [kcal/mol]      -3.53429988 [kJ/mol]
      Exch-Disp20                   0.03335201 [mEh]       0.02092870 [kcal/mol]       0.08756569 [kJ/mol]

  Total HF                          5.32163326 [mEh]       3.33937529 [kcal/mol]      13.97194621 [kJ/mol]
  Total SAPT0                       4.00884154 [mEh]       2.51558605 [kcal/mol]      10.52521201 [kJ/mol]

  --------------------------------------------------------------------------------------------------------
    Han Solo: This is *not* gonna work.
    Luke Skywalker: Why didn't you say so before?
    Han Solo: I *did* say so before.

    Psi4 stopped on: Thursday, 09 November 2023 03:28PM
    Psi4 wall time for execution: 0:12:09.44

*** Psi4 exiting successfully. Buy a developer a beer!
