
    -----------------------------------------------------------------------
          Psi4: An Open-Source Ab Initio Electronic Structure Package
                               Psi4 1.7 release

                         Git: Rev {HEAD} 6ce35a5 


    D. G. A. Smith, L. A. Burns, A. C. Simmonett, R. M. Parrish,
    M. C. Schieber, R. Galvelis, P. Kraus, H. Kruse, R. Di Remigio,
    A. Alenaizan, A. M. James, S. Lehtola, J. P. Misiewicz, M. Scheurer,
    R. A. Shaw, J. B. Schriber, Y. Xie, Z. L. Glick, D. A. Sirianni,
    J. S. O'Brien, J. M. Waldrop, A. Kumar, E. G. Hohenstein,
    B. P. Pritchard, B. R. Brooks, H. F. Schaefer III, A. Yu. Sokolov,
    K. Patkowski, A. E. DePrince III, U. Bozkaya, R. A. King,
    F. A. Evangelista, J. M. Turney, T. D. Crawford, C. D. Sherrill,
    J. Chem. Phys. 152(18) 184108 (2020). https://doi.org/10.1063/5.0006002

                            Additional Code Authors
    E. T. Seidl, C. L. Janssen, E. F. Valeev, M. L. Leininger,
    J. F. Gonthier, R. M. Richard, H. R. McAlexander, M. Saitow, X. Wang,
    P. Verma, M. H. Lechner, A. Jiang, S. Behnle, A. G. Heide,
    M. F. Herbst, and D. L. Poole

             Previous Authors, Complete List of Code Contributors,
                       and Citations for Specific Modules
    https://github.com/psi4/psi4/blob/master/codemeta.json
    https://github.com/psi4/psi4/graphs/contributors
    http://psicode.org/psi4manual/master/introduction.html#citing-psifour

    -----------------------------------------------------------------------


    Psi4 started on: Thursday, 09 November 2023 03:41PM

    Process ID: 4252
    Host:       DESKTOP-D4OA462
    PSIDATADIR: C:\Users\Ivan\.conda\envs\psi4\lib\share\psi4
    Memory:     500.0 MiB
    Threads:    1
    
  ==> Input File <==

--------------------------------------------------------------------------
memory 12000 MiB
mol = psi4.core.Molecule.from_arrays(
    elez=[8,6,6,6,6,6,6,1,1,1,1,1,8,6,6,6,6,6,6,1,1,1,1,1,6,1,1,6,1,1],
    fragment_separators=[12, 24],
    fix_com=True,
    fix_orientation=True,
    fix_symmetry='c1',
    fragment_multiplicities=[2, 2, 1],
    molecular_charge=0,
    molecular_multiplicity=1,
    geom= [
       -1.209328681,     -0.847812857,      0.087591566,
       -2.416454135,     -0.232021467,      0.078856228,
       -2.949531435,      0.461700623,     -1.003027890,
       -3.154931652,     -0.343207668,      1.255675586,
       -4.213301958,      1.030827669,     -0.897758842,
       -4.409274793,      0.227678315,      1.344768944,
       -4.949845901,      0.921063126,      0.267818777,
       -2.401256866,      0.567598540,     -1.928654507,
       -2.720212791,     -0.884390052,      2.086430187,
       -4.617872494,      1.569316176,     -1.746619372,
       -4.971037324,      0.132581752,      2.266217843,
       -5.931366172,      1.371073875,      0.340945895,
                                                        
        1.209328681,      0.847812857,      0.087591566,
        2.416454135,      0.232021467,      0.078856228,
        2.949531435,     -0.461700623,     -1.003027890,
        3.154931652,      0.343207668,      1.255675586,
        4.213301958,     -1.030827669,     -0.897758842,
        4.409274793,     -0.227678315,      1.344768944,
        4.949845901,     -0.921063126,      0.267818777,
        2.401256866,     -0.567598540,     -1.928654507,
        2.720212791,      0.884390052,      2.086430187,
        4.617872494,     -1.569316176,     -1.746619372,
        4.971037324,     -0.132581752,      2.266217843,
        5.931366172,     -1.371073875,      0.340945895,
                                                        
       -0.340479724,     -0.677365299,     -1.008187721,
        0.401376731,     -1.469244816,     -0.904459786,
       -0.863316534,     -0.833904687,     -1.958188597,
        0.340479724,      0.677365299,     -1.008187721,
        0.863316534,      0.833904687,     -1.958188597,
       -0.401376731,      1.469244816,     -0.904459786])
activate(mol)       
                    
set {               
basis jun-cc-pvdz   
scf_type df
guess sad
freeze_core true
fisapt_do_plot true
}
energy('fisapt0')
--------------------------------------------------------------------------

  Memory set to  11.719 GiB by Python driver.

Scratch directory: C:\Users\Ivan\AppData\Local\Temp/

*** tstart() called on DESKTOP-D4OA462
*** at Thu Nov  9 15:41:04 2023

   => Loading Basis Set <=

    Name: JUN-CC-PVDZ
    Role: ORBITAL
    Keyword: BASIS
    atoms 1, 13                     entry O          line   232 file C:\Users\Ivan\.conda\envs\psi4\lib\share\psi4\basis\jun-cc-pvdz.gbs 
    atoms 2-7, 14-19, 25, 28        entry C          line   164 file C:\Users\Ivan\.conda\envs\psi4\lib\share\psi4\basis\jun-cc-pvdz.gbs 
    atoms 8-12, 20-24, 26-27, 29-30 entry H          line    36 file C:\Users\Ivan\.conda\envs\psi4\lib\share\psi4\basis\jun-cc-pvdz.gbs 


         ---------------------------------------------------------
                                   SCF
               by Justin Turney, Rob Parrish, Andy Simmonett
                          and Daniel G. A. Smith
                              RHF Reference
                        1 Threads,   -288 MiB Core
         ---------------------------------------------------------

  ==> Geometry <==

    Molecular point group: c1
    Full point group: C2

    Geometry (in Angstrom), charge = 0, multiplicity = 1:

       Center              X                  Y                   Z               Mass       
    ------------   -----------------  -----------------  -----------------  -----------------
         O           -1.209328681000    -0.847812857000     0.087591566000    15.994914619570
         C           -2.416454135000    -0.232021467000     0.078856228000    12.000000000000
         C           -2.949531435000     0.461700623000    -1.003027890000    12.000000000000
         C           -3.154931652000    -0.343207668000     1.255675586000    12.000000000000
         C           -4.213301958000     1.030827669000    -0.897758842000    12.000000000000
         C           -4.409274793000     0.227678315000     1.344768944000    12.000000000000
         C           -4.949845901000     0.921063126000     0.267818777000    12.000000000000
         H           -2.401256866000     0.567598540000    -1.928654507000     1.007825032230
         H           -2.720212791000    -0.884390052000     2.086430187000     1.007825032230
         H           -4.617872494000     1.569316176000    -1.746619372000     1.007825032230
         H           -4.971037324000     0.132581752000     2.266217843000     1.007825032230
         H           -5.931366172000     1.371073875000     0.340945895000     1.007825032230
         O            1.209328681000     0.847812857000     0.087591566000    15.994914619570
         C            2.416454135000     0.232021467000     0.078856228000    12.000000000000
         C            2.949531435000    -0.461700623000    -1.003027890000    12.000000000000
         C            3.154931652000     0.343207668000     1.255675586000    12.000000000000
         C            4.213301958000    -1.030827669000    -0.897758842000    12.000000000000
         C            4.409274793000    -0.227678315000     1.344768944000    12.000000000000
         C            4.949845901000    -0.921063126000     0.267818777000    12.000000000000
         H            2.401256866000    -0.567598540000    -1.928654507000     1.007825032230
         H            2.720212791000     0.884390052000     2.086430187000     1.007825032230
         H            4.617872494000    -1.569316176000    -1.746619372000     1.007825032230
         H            4.971037324000    -0.132581752000     2.266217843000     1.007825032230
         H            5.931366172000    -1.371073875000     0.340945895000     1.007825032230
         C           -0.340479724000    -0.677365299000    -1.008187721000    12.000000000000
         H            0.401376731000    -1.469244816000    -0.904459786000     1.007825032230
         H           -0.863316534000    -0.833904687000    -1.958188597000     1.007825032230
         C            0.340479724000     0.677365299000    -1.008187721000    12.000000000000
         H            0.863316534000     0.833904687000    -1.958188597000     1.007825032230
         H           -0.401376731000     1.469244816000    -0.904459786000     1.007825032230

  Running in c1 symmetry.

  Rotational constants: A =      0.06054  B =      0.00697  C =      0.00667 [cm^-1]
  Rotational constants: A =   1814.82722  B =    209.07246  C =    200.06873 [MHz]
  Nuclear repulsion = 1001.577374630747727

  Charge       = 0
  Multiplicity = 1
  Electrons    = 114
  Nalpha       = 57
  Nbeta        = 57

  ==> Algorithm <==

  SCF Algorithm Type is DF.
  DIIS enabled.
  MOM disabled.
  Fractional occupation disabled.
  Guess Type is SAD.
  Energy threshold   = 1.00e-08
  Density threshold  = 1.00e-08
  Integral threshold = 1.00e-12

  ==> Primary Basis <==

  Basis Set: JUN-CC-PVDZ
    Blend: JUN-CC-PVDZ
    Number of shells: 170
    Number of basis functions: 358
    Number of Cartesian functions: 374
    Spherical Harmonics?: true
    Max angular momentum: 2

   => Loading Basis Set <=

    Name: (JUN-CC-PVDZ AUX)
    Role: JKFIT
    Keyword: DF_BASIS_SCF
    atoms 1, 13                     entry O          line   258 file C:\Users\Ivan\.conda\envs\psi4\lib\share\psi4\basis\jun-cc-pvdz-jkfit.gbs 
    atoms 2-7, 14-19, 25, 28        entry C          line   146 file C:\Users\Ivan\.conda\envs\psi4\lib\share\psi4\basis\jun-cc-pvdz-jkfit.gbs 
    atoms 8-12, 20-24, 26-27, 29-30 entry H          line    70 file C:\Users\Ivan\.conda\envs\psi4\lib\share\psi4\basis\jun-cc-pvdz-jkfit.gbs 

  ==> Integral Setup <==

  DFHelper Memory: AOs need 1.315 GiB; user supplied 8.789 GiB. Using in-core AOs.

  ==> MemDFJK: Density-Fitted J/K Matrices <==

    J tasked:                   Yes
    K tasked:                   Yes
    wK tasked:                   No
    OpenMP threads:               1
    Memory [MiB]:              9000
    Algorithm:                 Core
    Schwarz Cutoff:           1E-12
    Mask sparsity (%):      15.7657
    Fitting Condition:        1E-10

   => Auxiliary Basis Set <=

  Basis Set: (JUN-CC-PVDZ AUX)
    Blend: JUN-CC-PVDZ-JKFIT
    Number of shells: 558
    Number of basis functions: 1586
    Number of Cartesian functions: 1806
    Spherical Harmonics?: true
    Max angular momentum: 3

  Minimum eigenvalue in the overlap matrix is 7.0038996663E-06.
  Reciprocal condition number of the overlap matrix is 5.2299308042E-07.
    Using symmetric orthogonalization.

  ==> Pre-Iterations <==

  SCF Guess: Superposition of Atomic Densities via on-the-fly atomic UHF (no occupation information).

   -------------------------
    Irrep   Nso     Nmo    
   -------------------------
     A        358     358 
   -------------------------
    Total     358     358
   -------------------------

  ==> Iterations <==

                           Total Energy        Delta E     RMS |[F,P]|

   @DF-RHF iter SAD:  -687.64709078376552   -6.87647e+02   0.00000e+00 
   @DF-RHF iter   1:  -687.66131971123218   -1.42289e-02   2.21700e-03 DIIS/ADIIS
   @DF-RHF iter   2:  -688.00230796558390   -3.40988e-01   9.85185e-04 DIIS/ADIIS
   @DF-RHF iter   3:  -688.06689021483646   -6.45822e-02   1.93872e-04 DIIS/ADIIS
   @DF-RHF iter   4:  -688.07089521031651   -4.00500e-03   5.82160e-05 DIIS
   @DF-RHF iter   5:  -688.07115737353126   -2.62163e-04   1.53198e-05 DIIS
   @DF-RHF iter   6:  -688.07118555053648   -2.81770e-05   5.22053e-06 DIIS
   @DF-RHF iter   7:  -688.07118903808475   -3.48755e-06   1.80979e-06 DIIS
   @DF-RHF iter   8:  -688.07118962266338   -5.84579e-07   6.23578e-07 DIIS
   @DF-RHF iter   9:  -688.07118972500302   -1.02340e-07   2.65580e-07 DIIS
   @DF-RHF iter  10:  -688.07118974026525   -1.52622e-08   1.16223e-07 DIIS
   @DF-RHF iter  11:  -688.07118974619152   -5.92627e-09   5.15030e-08 DIIS
   @DF-RHF iter  12:  -688.07118974725756   -1.06604e-09   1.75594e-08 DIIS
   @DF-RHF iter  13:  -688.07118974734760   -9.00400e-11   5.05952e-09 DIIS
  Energy and wave function converged.


  ==> Post-Iterations <==

    Orbital Energies [Eh]
    ---------------------

    Doubly Occupied:                                                      

       1A    -20.592998     2A    -20.592997     3A    -11.307504  
       4A    -11.307503     5A    -11.300502     6A    -11.299859  
       7A    -11.247245     8A    -11.247244     9A    -11.244714  
      10A    -11.244714    11A    -11.239509    12A    -11.239508  
      13A    -11.232609    14A    -11.232609    15A    -11.232510  
      16A    -11.232510    17A     -1.433726    18A     -1.418578  
      19A     -1.158054    20A     -1.155590    21A     -1.060568  
      22A     -1.025660    23A     -1.023750    24A     -1.018675  
      25A     -0.988637    26A     -0.897008    27A     -0.840991  
      28A     -0.838096    29A     -0.823347    30A     -0.796577  
      31A     -0.741168    32A     -0.713382    33A     -0.690018  
      34A     -0.683221    35A     -0.672606    36A     -0.662332  
      37A     -0.661585    38A     -0.625991    39A     -0.618696  
      40A     -0.605871    41A     -0.590839    42A     -0.588750  
      43A     -0.578251    44A     -0.570792    45A     -0.529982  
      46A     -0.524092    47A     -0.523020    48A     -0.518534  
      49A     -0.508321    50A     -0.487494    51A     -0.487171  
      52A     -0.473607    53A     -0.457627    54A     -0.343884  
      55A     -0.343549    56A     -0.316515    57A     -0.311911  

    Virtual:                                                              

      58A      0.052264    59A      0.059132    60A      0.065043  
      61A      0.067233    62A      0.074639    63A      0.077128  
      64A      0.085766    65A      0.087305    66A      0.097877  
      67A      0.098486    68A      0.107458    69A      0.108215  
      70A      0.110706    71A      0.112027    72A      0.112581  
      73A      0.118776    74A      0.123359    75A      0.125466  
      76A      0.132379    77A      0.136178    78A      0.136561  
      79A      0.149073    80A      0.155173    81A      0.161001  
      82A      0.161532    83A      0.164884    84A      0.166104  
      85A      0.172461    86A      0.178797    87A      0.185976  
      88A      0.188870    89A      0.195828    90A      0.198052  
      91A      0.203623    92A      0.207235    93A      0.207447  
      94A      0.213681    95A      0.218720    96A      0.222832  
      97A      0.232820    98A      0.236483    99A      0.239958  
     100A      0.248620   101A      0.249861   102A      0.259206  
     103A      0.263548   104A      0.271635   105A      0.279228  
     106A      0.279439   107A      0.283203   108A      0.287771  
     109A      0.290438   110A      0.291612   111A      0.293264  
     112A      0.294186   113A      0.297639   114A      0.308243  
     115A      0.311161   116A      0.316444   117A      0.326507  
     118A      0.335677   119A      0.345613   120A      0.348660  
     121A      0.353885   122A      0.362572   123A      0.367116  
     124A      0.372368   125A      0.378984   126A      0.379497  
     127A      0.385360   128A      0.389362   129A      0.393102  
     130A      0.394028   131A      0.398496   132A      0.413977  
     133A      0.417260   134A      0.429394   135A      0.438746  
     136A      0.440864   137A      0.451331   138A      0.453725  
     139A      0.462830   140A      0.472972   141A      0.474562  
     142A      0.481065   143A      0.488332   144A      0.499479  
     145A      0.503241   146A      0.511563   147A      0.522991  
     148A      0.548966   149A      0.557421   150A      0.571047  
     151A      0.581448   152A      0.597971   153A      0.604613  
     154A      0.636271   155A      0.704415   156A      0.708742  
     157A      0.747222   158A      0.761194   159A      0.770146  
     160A      0.792811   161A      0.799360   162A      0.811579  
     163A      0.821033   164A      0.826625   165A      0.829888  
     166A      0.832115   167A      0.852423   168A      0.858049  
     169A      0.861971   170A      0.863724   171A      0.883280  
     172A      0.898212   173A      0.898621   174A      0.907618  
     175A      0.908878   176A      0.918102   177A      0.939571  
     178A      0.940560   179A      0.940686   180A      0.950990  
     181A      0.954485   182A      0.957274   183A      0.957789  
     184A      0.962938   185A      0.966368   186A      0.966433  
     187A      0.977079   188A      0.980510   189A      0.986745  
     190A      0.989543   191A      0.992087   192A      0.994461  
     193A      0.998648   194A      1.020246   195A      1.029296  
     196A      1.030748   197A      1.038189   198A      1.042697  
     199A      1.057854   200A      1.064029   201A      1.077275  
     202A      1.120630   203A      1.125263   204A      1.151922  
     205A      1.152708   206A      1.167131   207A      1.177992  
     208A      1.178241   209A      1.187379   210A      1.191388  
     211A      1.216560   212A      1.219611   213A      1.239591  
     214A      1.239685   215A      1.247795   216A      1.248191  
     217A      1.261174   218A      1.263606   219A      1.268812  
     220A      1.271664   221A      1.274127   222A      1.282708  
     223A      1.300883   224A      1.314383   225A      1.319684  
     226A      1.325968   227A      1.347483   228A      1.358441  
     229A      1.364000   230A      1.367285   231A      1.374931  
     232A      1.381778   233A      1.388821   234A      1.398901  
     235A      1.485662   236A      1.503088   237A      1.507462  
     238A      1.510613   239A      1.518732   240A      1.532964  
     241A      1.541093   242A      1.558897   243A      1.670018  
     244A      1.672087   245A      1.714305   246A      1.717377  
     247A      1.722783   248A      1.737393   249A      1.755798  
     250A      1.759365   251A      1.769788   252A      1.771291  
     253A      1.776219   254A      1.789822   255A      1.811247  
     256A      1.811751   257A      1.818241   258A      1.861777  
     259A      1.888026   260A      1.896225   261A      1.918946  
     262A      1.925447   263A      1.926846   264A      1.930654  
     265A      1.944646   266A      1.947513   267A      1.954406  
     268A      1.957152   269A      1.959266   270A      1.970125  
     271A      1.972605   272A      1.983268   273A      1.983765  
     274A      1.988445   275A      1.993349   276A      2.005807  
     277A      2.014978   278A      2.035348   279A      2.055713  
     280A      2.063225   281A      2.067361   282A      2.070427  
     283A      2.073909   284A      2.088509   285A      2.088802  
     286A      2.099891   287A      2.112147   288A      2.127586  
     289A      2.141341   290A      2.142972   291A      2.176440  
     292A      2.176484   293A      2.177719   294A      2.184329  
     295A      2.187497   296A      2.192443   297A      2.194281  
     298A      2.197830   299A      2.211287   300A      2.240836  
     301A      2.264887   302A      2.269722   303A      2.279216  
     304A      2.280861   305A      2.309265   306A      2.316121  
     307A      2.342480   308A      2.389716   309A      2.412355  
     310A      2.418877   311A      2.423963   312A      2.427149  
     313A      2.479908   314A      2.491635   315A      2.503342  
     316A      2.518874   317A      2.526362   318A      2.537255  
     319A      2.552768   320A      2.585805   321A      2.620055  
     322A      2.658236   323A      2.741463   324A      2.756817  
     325A      2.778482   326A      2.785570   327A      2.809359  
     328A      2.810711   329A      2.834253   330A      2.844774  
     331A      2.850043   332A      2.853429   333A      2.867111  
     334A      2.878107   335A      2.909760   336A      2.998802  
     337A      3.013288   338A      3.031583   339A      3.043432  
     340A      3.049388   341A      3.099699   342A      3.101270  
     343A      3.185299   344A      3.190449   345A      3.241785  
     346A      3.287641   347A      3.293897   348A      3.314621  
     349A      3.403621   350A      3.506384   351A      3.530219  
     352A      3.548000   353A      3.736625   354A      3.771748  
     355A      3.856672   356A      3.934167   357A      4.117295  
     358A      4.131522  

    Final Occupation by Irrep:
              A 
    DOCC [    57 ]
    NA   [    57 ]
    NB   [    57 ]

  @DF-RHF Final Energy:  -688.07118974734760

   => Energetics <=

    Nuclear Repulsion Energy =           1001.5773746307477268
    One-Electron Energy =               -2923.0911290237340836
    Two-Electron Energy =                1233.4425646456388677
    Total Energy =                       -688.0711897473474892

Computation Completed


Properties will be evaluated at   0.000000,   0.000000,   0.000000 [a0]

Properties computed using the SCF density matrix


 Multipole Moments:

 ------------------------------------------------------------------------------------
     Multipole            Electronic (a.u.)      Nuclear  (a.u.)        Total (a.u.)
 ------------------------------------------------------------------------------------

 L = 1.  Multiply by 2.5417464519 to convert [e a0] to [Debye]
 Dipole X            :         -0.0000000            0.0000000           -0.0000000
 Dipole Y            :          0.0000000           -0.0000000            0.0000000
 Dipole Z            :          2.6312721           -3.4571607           -0.8258885
 Magnitude           :                                                    0.8258885

 ------------------------------------------------------------------------------------

*** tstop() called on DESKTOP-D4OA462 at Thu Nov  9 15:41:44 2023
Module time:
	user time   =        nan seconds =        nan minutes
	system time =        nan seconds =        nan minutes
	total time  =         40 seconds =       0.67 minutes
Total time:
	user time   =        nan seconds =        nan minutes
	system time =        nan seconds =        nan minutes
	total time  =         40 seconds =       0.67 minutes
  Constructing Basis Sets for FISAPT...

   => Loading Basis Set <=

    Name: (JUN-CC-PVDZ AUX)
    Role: JKFIT
    Keyword: DF_BASIS_SCF
    atoms 1, 13                     entry O          line   258 file C:\Users\Ivan\.conda\envs\psi4\lib\share\psi4\basis\jun-cc-pvdz-jkfit.gbs 
    atoms 2-7, 14-19, 25, 28        entry C          line   146 file C:\Users\Ivan\.conda\envs\psi4\lib\share\psi4\basis\jun-cc-pvdz-jkfit.gbs 
    atoms 8-12, 20-24, 26-27, 29-30 entry H          line    70 file C:\Users\Ivan\.conda\envs\psi4\lib\share\psi4\basis\jun-cc-pvdz-jkfit.gbs 

   => Loading Basis Set <=

    Name: (JUN-CC-PVDZ AUX)
    Role: RIFIT
    Keyword: DF_BASIS_SAPT
    atoms 1, 13                     entry O          line   188 file C:\Users\Ivan\.conda\envs\psi4\lib\share\psi4\basis\jun-cc-pvdz-ri.gbs 
    atoms 2-7, 14-19, 25, 28        entry C          line   100 file C:\Users\Ivan\.conda\envs\psi4\lib\share\psi4\basis\jun-cc-pvdz-ri.gbs 
    atoms 8-12, 20-24, 26-27, 29-30 entry H          line    30 file C:\Users\Ivan\.conda\envs\psi4\lib\share\psi4\basis\jun-cc-pvdz-ri.gbs 

   => Loading Basis Set <=

    Name: CC-PVTZ-MINAO
    Role: ORBITAL
    Keyword: BASIS
    atoms 1, 13                     entry O          line   179 file C:\Users\Ivan\.conda\envs\psi4\lib\share\psi4\basis\cc-pvtz-minao.gbs 
    atoms 2-7, 14-19, 25, 28        entry C          line   119 file C:\Users\Ivan\.conda\envs\psi4\lib\share\psi4\basis\cc-pvtz-minao.gbs 
    atoms 8-12, 20-24, 26-27, 29-30 entry H          line    20 file C:\Users\Ivan\.conda\envs\psi4\lib\share\psi4\basis\cc-pvtz-minao.gbs 

	 --------------------------------------------
	                    FISAPT0                  
	                  Rob Parrish                
	 --------------------------------------------

    Do F-SAPT =         Yes
    Do Plot   =         Yes
    Memory    =      10.547 [GiB]

  ==> Localization (IBO) <==

  ==> IBO Localizer 2 <==

    MinAO Basis = CC-PVTZ-MINAO
    Use Ghosts  =       FALSE
    Use Stars   =       FALSE
    Condition   =   1.000E-07
    Power       =           4
    Convergence =   1.000E-12
    Maxiter     =         200

    @IBO Iter:                   Metric       Gradient
    @IBO    1:   1.1513347551690680E+00   2.207391E+00
    @IBO    2:   2.1372667997824162E+00   1.548089E+00
    @IBO    3:   2.1981664130521272E+00   7.920189E-01
    @IBO    4:   2.2073647878890408E+00   2.235803E-01
    @IBO    5:   2.2076920021920334E+00   3.966346E-03
    @IBO    6:   2.2076921594644308E+00   3.060298E-04
    @IBO    7:   2.2076921627071608E+00   5.694007E-05
    @IBO    8:   2.2076921628228083E+00   1.102602E-05
    @IBO    9:   2.2076921628272426E+00   2.191952E-06
    @IBO   10:   2.2076921628274224E+00   4.439999E-07
    @IBO   11:   2.2076921628274295E+00   9.120755E-08
    @IBO   12:   2.2076921628274295E+00   1.895011E-08
    @IBO   13:   2.2076921628274300E+00   3.975604E-09
    @IBO   14:   2.2076921628274304E+00   8.411636E-10
    @IBO   15:   2.2076921628274300E+00   1.793040E-10
    @IBO   16:   2.2076921628274300E+00   3.846773E-11
    @IBO   17:   2.2076921628274295E+00   8.297997E-12
    @IBO   18:   2.2076921628274295E+00   1.798036E-12
    @IBO   19:   2.2076921628274295E+00   3.909504E-13

    IBO Localizer 2 converged.

  ==> Partitioning <==

   => Atomic Partitioning <= 

    Monomer A:  12 atoms
    Monomer B:  12 atoms
    Monomer C:   6 atoms

   => Link Bond Identification <=

    Link Bond Selection = AUTOMATIC

    Charge Completeness = 0.800

    Total Link Bonds = 2

    --------------------------
    N     Orb Type Aind1 Aind2
    --------------------------
    1      40   AC     1    25
    2      45   BC    13    28
    --------------------------

   => Link Bond Assignment <=

    Link Bond Assignment      = C

   => Partition Summary <=

    Monomer A:  0 charge,  48 protons,  48 electrons,  24 docc
    Monomer B:  0 charge,  48 protons,  48 electrons,  24 docc
    Monomer C:  0 charge,  18 protons,  18 electrons,   9 docc

  ==> Overlap Integrals <==

  ==> Kinetic Integrals <==

  ==> Nuclear Integrals <==

    Nuclear Repulsion Tot:   1.0015773746307481E+03 [Eh]

  ==> Coulomb Integrals <==

  DFHelper Memory: AOs need 1.315 GiB; user supplied 10.544 GiB. Using in-core AOs.

  ==> MemDFJK: Density-Fitted J/K Matrices <==

    J tasked:                   Yes
    K tasked:                   Yes
    wK tasked:                   No
    OpenMP threads:               1
    Memory [MiB]:             10800
    Algorithm:                 Core
    Schwarz Cutoff:           1E-12
    Mask sparsity (%):      15.7657
    Fitting Condition:        1E-10

   => Auxiliary Basis Set <=

  Basis Set: (JUN-CC-PVDZ AUX)
    Blend: JUN-CC-PVDZ-JKFIT
    Number of shells: 558
    Number of basis functions: 1586
    Number of Cartesian functions: 1806
    Spherical Harmonics?: true
    Max angular momentum: 3

  ==> Relaxed SCF Equations <==

  ==> SCF A: <==

    Maxiter =         100
    E Tol   =   1.000E-08
    D Tol   =   1.000E-08

    Max DIIS Vectors = 10

    Iter   N:                        E          dE         |D|
    Iter   1:  -2.9739169486416057E+02  -2.974E+02   2.702E-04 
    Iter   2:  -2.9739329901645812E+02  -1.604E-03   1.748E-05 DIIS
    Iter   3:  -2.9739332462268163E+02  -2.561E-05   7.074E-06 DIIS
    Iter   4:  -2.9739332845218274E+02  -3.830E-06   2.621E-06 DIIS
    Iter   5:  -2.9739332911264017E+02  -6.605E-07   5.781E-07 DIIS
    Iter   6:  -2.9739332917136875E+02  -5.873E-08   2.799E-07 DIIS
    Iter   7:  -2.9739332918764228E+02  -1.627E-08   1.110E-07 DIIS
    Iter   8:  -2.9739332919220988E+02  -4.568E-09   4.365E-08 DIIS
    Iter   9:  -2.9739332919298380E+02  -7.739E-10   1.733E-08 DIIS
    Iter  10:  -2.9739332919305963E+02  -7.583E-11   6.228E-09 DIIS

    FISAPTSCF Converged.

    Final SCF Energy:  -2.9739332919305963E+02 [Eh]

   => Occupied Orbital Energies <=

       1  -20.586930     2  -11.303189     3  -11.243686  
       4  -11.241851     5  -11.234539     6  -11.229415  
       7  -11.229128     8   -1.230627     9   -1.127189  
      10   -1.020520    11   -0.969032    12   -0.832678  
      13   -0.791131    14   -0.689800    15   -0.652357  
      16   -0.617487    17   -0.589919    18   -0.586656  
      19   -0.574844    20   -0.515681    21   -0.492605  
      22   -0.481058    23   -0.340785    24   -0.312154  

   => Virtual Orbital Energies <=

      25    0.031736    26    0.051411    27    0.056893  
      28    0.064774    29    0.066633    30    0.071986  
      31    0.082890    32    0.084046    33    0.092567  
      34    0.096298    35    0.098745    36    0.104627  
      37    0.108788    38    0.112074    39    0.116742  
      40    0.121129    41    0.121831    42    0.127512  
      43    0.131767    44    0.139496    45    0.142673  
      46    0.147035    47    0.152219    48    0.158258  
      49    0.160147    50    0.165286    51    0.167885  
      52    0.172760    53    0.177528    54    0.179121  
      55    0.179545    56    0.188387    57    0.190843  
      58    0.197911    59    0.200599    60    0.207356  
      61    0.207973    62    0.216675    63    0.217885  
      64    0.223191    65    0.233400    66    0.234957  
      67    0.240306    68    0.243282    69    0.248331  
      70    0.257915    71    0.263434    72    0.265921  
      73    0.272149    74    0.279808    75    0.284143  
      76    0.286340    77    0.291078    78    0.295702  
      79    0.297057    80    0.300204    81    0.308627  
      82    0.312809    83    0.318409    84    0.331551  
      85    0.344867    86    0.359087    87    0.366082  
      88    0.370034    89    0.372985    90    0.384404  
      91    0.385780    92    0.391438    93    0.401336  
      94    0.407142    95    0.412059    96    0.423156  
      97    0.430218    98    0.435744    99    0.441006  
     100    0.444378   101    0.453616   102    0.454940  
     103    0.460466   104    0.462170   105    0.465789  
     106    0.477281   107    0.487192   108    0.491406  
     109    0.496996   110    0.501885   111    0.511646  
     112    0.517458   113    0.533684   114    0.543716  
     115    0.550429   116    0.558664   117    0.568042  
     118    0.586205   119    0.600046   120    0.608008  
     121    0.619213   122    0.634881   123    0.643572  
     124    0.660396   125    0.682764   126    0.694138  
     127    0.717562   128    0.739148   129    0.744816  
     130    0.758333   131    0.766232   132    0.790807  
     133    0.798941   134    0.807002   135    0.814437  
     136    0.827788   137    0.832967   138    0.858353  
     139    0.871483   140    0.874969   141    0.893573  
     142    0.903531   143    0.906896   144    0.923754  
     145    0.932272   146    0.942753   147    0.950089  
     148    0.958336   149    0.964191   150    0.966357  
     151    0.976214   152    0.977063   153    0.981070  
     154    0.985014   155    0.989403   156    1.002961  
     157    1.018625   158    1.031959   159    1.040550  
     160    1.049536   161    1.056825   162    1.067883  
     163    1.099530   164    1.115346   165    1.133990  
     166    1.145066   167    1.162608   168    1.176048  
     169    1.186542   170    1.190900   171    1.228471  
     172    1.234135   173    1.240580   174    1.247658  
     175    1.252663   176    1.270511   177    1.281654  
     178    1.283927   179    1.320208   180    1.324265  
     181    1.352416   182    1.367380   183    1.369697  
     184    1.383908   185    1.398024   186    1.506107  
     187    1.510359   188    1.521363   189    1.533828  
     190    1.555584   191    1.644144   192    1.653679  
     193    1.668988   194    1.680536   195    1.695200  
     196    1.703950   197    1.722093   198    1.749159  
     199    1.757672   200    1.762634   201    1.766484  
     202    1.775196   203    1.785228   204    1.796840  
     205    1.800651   206    1.810851   207    1.816678  
     208    1.824740   209    1.859179   210    1.865552  
     211    1.887709   212    1.906035   213    1.912318  
     214    1.920255   215    1.929449   216    1.933334  
     217    1.944077   218    1.952051   219    1.956681  
     220    1.968472   221    1.980956   222    1.985550  
     223    1.991240   224    1.997732   225    2.007632  
     226    2.009602   227    2.011604   228    2.042664  
     229    2.043699   230    2.050596   231    2.063065  
     232    2.070709   233    2.073561   234    2.082700  
     235    2.101083   236    2.104872   237    2.122102  
     238    2.125739   239    2.142747   240    2.147456  
     241    2.149035   242    2.172149   243    2.178417  
     244    2.183299   245    2.188273   246    2.197298  
     247    2.198605   248    2.201952   249    2.212597  
     250    2.222457   251    2.232965   252    2.241478  
     253    2.263563   254    2.273897   255    2.288448  
     256    2.300723   257    2.309917   258    2.322785  
     259    2.338696   260    2.354179   261    2.367426  
     262    2.374840   263    2.403270   264    2.420735  
     265    2.428239   266    2.441987   267    2.446765  
     268    2.458818   269    2.489483   270    2.498495  
     271    2.521275   272    2.527730   273    2.529029  
     274    2.543298   275    2.563284   276    2.580899  
     277    2.593590   278    2.606362   279    2.647046  
     280    2.666184   281    2.691769   282    2.704061  
     283    2.764769   284    2.772563   285    2.785883  
     286    2.803246   287    2.813589   288    2.819552  
     289    2.828909   290    2.846911   291    2.861569  
     292    2.866542   293    2.894490   294    2.916029  
     295    2.931383   296    2.966481   297    3.017725  
     298    3.049312   299    3.052914   300    3.065804  
     301    3.096352   302    3.109773   303    3.116897  
     304    3.134688   305    3.140951   306    3.193420  
     307    3.207996   308    3.253769   309    3.274327  
     310    3.295019   311    3.307415   312    3.408463  
     313    3.450349   314    3.484543   315    3.547162  
     316    3.559784   317    3.573491   318    3.648300  
     319    3.705294   320    3.759316   321    3.855968  
     322    3.913776   323    4.128863   324    4.145744  
     325    4.281893   326    4.305045   327    4.340520  
     328    4.350557   329    4.445044   330    4.541168  
     331    4.568822   332    4.764906   333    4.936265  
     334    5.069805   335    5.121683   336    5.391925  
     337    5.410653   338    5.472268   339    5.483253  
     340    5.564179   341    5.699733   342    6.035546  
     343   17.976022   344   18.126411   345   18.139298  
     346   18.586787   347   18.614047   348   19.261709  
     349   26.471396  

  ==> SCF B: <==

    Maxiter =         100
    E Tol   =   1.000E-08
    D Tol   =   1.000E-08

    Max DIIS Vectors = 10

    Iter   N:                        E          dE         |D|
    Iter   1:  -2.9739169486384191E+02  -2.974E+02   2.702E-04 
    Iter   2:  -2.9739329901614116E+02  -1.604E-03   1.748E-05 DIIS
    Iter   3:  -2.9739332462236342E+02  -2.561E-05   7.074E-06 DIIS
    Iter   4:  -2.9739332845186391E+02  -3.830E-06   2.621E-06 DIIS
    Iter   5:  -2.9739332911232168E+02  -6.605E-07   5.781E-07 DIIS
    Iter   6:  -2.9739332917105156E+02  -5.873E-08   2.799E-07 DIIS
    Iter   7:  -2.9739332918732492E+02  -1.627E-08   1.110E-07 DIIS
    Iter   8:  -2.9739332919189189E+02  -4.567E-09   4.365E-08 DIIS
    Iter   9:  -2.9739332919266559E+02  -7.737E-10   1.733E-08 DIIS
    Iter  10:  -2.9739332919274165E+02  -7.606E-11   6.228E-09 DIIS

    FISAPTSCF Converged.

    Final SCF Energy:  -2.9739332919274165E+02 [Eh]

   => Occupied Orbital Energies <=

       1  -20.586930     2  -11.303189     3  -11.243686  
       4  -11.241851     5  -11.234539     6  -11.229415  
       7  -11.229128     8   -1.230627     9   -1.127189  
      10   -1.020520    11   -0.969032    12   -0.832678  
      13   -0.791131    14   -0.689800    15   -0.652357  
      16   -0.617487    17   -0.589919    18   -0.586656  
      19   -0.574844    20   -0.515681    21   -0.492605  
      22   -0.481058    23   -0.340785    24   -0.312154  

   => Virtual Orbital Energies <=

      25    0.031736    26    0.051411    27    0.056893  
      28    0.064774    29    0.066633    30    0.071986  
      31    0.082890    32    0.084046    33    0.092567  
      34    0.096298    35    0.098745    36    0.104627  
      37    0.108788    38    0.112074    39    0.116742  
      40    0.121129    41    0.121831    42    0.127512  
      43    0.131767    44    0.139496    45    0.142673  
      46    0.147035    47    0.152219    48    0.158258  
      49    0.160147    50    0.165286    51    0.167885  
      52    0.172760    53    0.177528    54    0.179121  
      55    0.179545    56    0.188387    57    0.190843  
      58    0.197911    59    0.200599    60    0.207356  
      61    0.207973    62    0.216675    63    0.217885  
      64    0.223191    65    0.233400    66    0.234957  
      67    0.240306    68    0.243282    69    0.248331  
      70    0.257915    71    0.263434    72    0.265921  
      73    0.272149    74    0.279808    75    0.284143  
      76    0.286340    77    0.291078    78    0.295702  
      79    0.297057    80    0.300204    81    0.308627  
      82    0.312809    83    0.318408    84    0.331551  
      85    0.344867    86    0.359087    87    0.366082  
      88    0.370034    89    0.372985    90    0.384404  
      91    0.385780    92    0.391438    93    0.401336  
      94    0.407142    95    0.412059    96    0.423156  
      97    0.430218    98    0.435744    99    0.441006  
     100    0.444378   101    0.453616   102    0.454940  
     103    0.460466   104    0.462170   105    0.465789  
     106    0.477281   107    0.487192   108    0.491406  
     109    0.496996   110    0.501885   111    0.511646  
     112    0.517458   113    0.533684   114    0.543716  
     115    0.550429   116    0.558664   117    0.568042  
     118    0.586205   119    0.600046   120    0.608008  
     121    0.619213   122    0.634881   123    0.643572  
     124    0.660396   125    0.682764   126    0.694138  
     127    0.717562   128    0.739148   129    0.744816  
     130    0.758333   131    0.766232   132    0.790807  
     133    0.798941   134    0.807002   135    0.814437  
     136    0.827788   137    0.832967   138    0.858353  
     139    0.871483   140    0.874969   141    0.893573  
     142    0.903531   143    0.906896   144    0.923754  
     145    0.932272   146    0.942753   147    0.950089  
     148    0.958336   149    0.964191   150    0.966357  
     151    0.976214   152    0.977063   153    0.981070  
     154    0.985014   155    0.989403   156    1.002961  
     157    1.018625   158    1.031959   159    1.040550  
     160    1.049536   161    1.056825   162    1.067883  
     163    1.099530   164    1.115346   165    1.133990  
     166    1.145066   167    1.162608   168    1.176048  
     169    1.186542   170    1.190900   171    1.228471  
     172    1.234135   173    1.240580   174    1.247658  
     175    1.252663   176    1.270511   177    1.281654  
     178    1.283927   179    1.320208   180    1.324265  
     181    1.352416   182    1.367380   183    1.369697  
     184    1.383908   185    1.398024   186    1.506107  
     187    1.510359   188    1.521363   189    1.533828  
     190    1.555584   191    1.644144   192    1.653679  
     193    1.668988   194    1.680536   195    1.695200  
     196    1.703950   197    1.722093   198    1.749159  
     199    1.757672   200    1.762634   201    1.766484  
     202    1.775196   203    1.785228   204    1.796840  
     205    1.800651   206    1.810851   207    1.816678  
     208    1.824740   209    1.859179   210    1.865552  
     211    1.887709   212    1.906035   213    1.912318  
     214    1.920255   215    1.929449   216    1.933334  
     217    1.944077   218    1.952051   219    1.956681  
     220    1.968472   221    1.980956   222    1.985550  
     223    1.991240   224    1.997732   225    2.007632  
     226    2.009602   227    2.011604   228    2.042664  
     229    2.043699   230    2.050596   231    2.063065  
     232    2.070709   233    2.073561   234    2.082700  
     235    2.101083   236    2.104872   237    2.122102  
     238    2.125739   239    2.142747   240    2.147456  
     241    2.149035   242    2.172149   243    2.178417  
     244    2.183299   245    2.188273   246    2.197298  
     247    2.198605   248    2.201952   249    2.212597  
     250    2.222457   251    2.232965   252    2.241478  
     253    2.263563   254    2.273897   255    2.288448  
     256    2.300723   257    2.309917   258    2.322785  
     259    2.338696   260    2.354179   261    2.367426  
     262    2.374840   263    2.403270   264    2.420735  
     265    2.428239   266    2.441987   267    2.446765  
     268    2.458818   269    2.489483   270    2.498495  
     271    2.521275   272    2.527730   273    2.529029  
     274    2.543298   275    2.563284   276    2.580899  
     277    2.593590   278    2.606362   279    2.647046  
     280    2.666184   281    2.691769   282    2.704061  
     283    2.764769   284    2.772563   285    2.785883  
     286    2.803246   287    2.813589   288    2.819552  
     289    2.828909   290    2.846911   291    2.861569  
     292    2.866542   293    2.894490   294    2.916029  
     295    2.931383   296    2.966481   297    3.017725  
     298    3.049312   299    3.052914   300    3.065804  
     301    3.096352   302    3.109773   303    3.116897  
     304    3.134688   305    3.140951   306    3.193420  
     307    3.207996   308    3.253769   309    3.274327  
     310    3.295019   311    3.307415   312    3.408463  
     313    3.450349   314    3.484543   315    3.547162  
     316    3.559784   317    3.573491   318    3.648300  
     319    3.705294   320    3.759316   321    3.855968  
     322    3.913776   323    4.128863   324    4.145744  
     325    4.281893   326    4.305045   327    4.340520  
     328    4.350557   329    4.445044   330    4.541168  
     331    4.568822   332    4.764906   333    4.936265  
     334    5.069805   335    5.121683   336    5.391925  
     337    5.410653   338    5.472268   339    5.483253  
     340    5.564179   341    5.699733   342    6.035546  
     343   17.976022   344   18.126411   345   18.139298  
     346   18.586787   347   18.614047   348   19.261709  
     349   26.471396  

  ==> Frozen Core <==


    ------------------
    Range      A     B
    ------------------
    nbf      358   358
    nmo      349   349
    nocc      24    24
    nvir     325   325
    nfocc      7     7
    naocc     17    17
    navir    325   325
    nfvir      0     0
    ------------------

  ==> Unification <==

  ==> dHF <==

    E ABC(HF) =  -6.8807118974734760E+02 [Eh]
    E AC(0)   =  -3.8089296657144735E+02 [Eh]
    E BC(0)   =  -3.8089296657142347E+02 [Eh]
    E A(0)    =  -2.8266845878848869E+02 [Eh]
    E B(0)    =  -2.8266845878852041E+02 [Eh]
    E AC(HF)  =  -3.8089133224254726E+02 [Eh]
    E BC(HF)  =  -3.8089133224252384E+02 [Eh]
    E AB(HF)  =  -5.6531303909664564E+02 [Eh]
    E A(HF)   =  -2.8265812299990569E+02 [Eh]
    E B(HF)   =  -2.8265812299994400E+02 [Eh]
    E C       =  -7.3708267834516406E+01 [Eh]
    E HF      =   6.4755610068090164E-03 [Eh]

  ==> Electrostatics <==

    Elst10,r            =     0.006892323467 [Eh]

  ==> Exchange <==

    Exch10(S^2)         =     0.000360375299 [Eh]
    Exch10              =     0.000360292331 [Eh]

  ==> Induction <==

    Ind20,u (A<-B)      =    -0.000349702077 [Eh]
    Ind20,u (B<-A)      =    -0.000349702077 [Eh]
    Ind20,u             =    -0.000699404154 [Eh]
    Exch-Ind20,u (A<-B) =     0.000038540352 [Eh]
    Exch-Ind20,u (B<-A) =     0.000038540352 [Eh]
    Exch-Ind20,u        =     0.000077080704 [Eh]

  ==> CPHF Iterations <==

    Maxiter     =         100
    Convergence =   1.000E-08

    -----------------------------------------
    Iter   Monomer A    Monomer B    Time [s]
    -----------------------------------------
    1      2.171E-01    2.171E-01           2
    2      7.308E-02    7.308E-02           4
    3      2.016E-02    2.016E-02           6
    4      9.420E-03    9.420E-03           8
    5      4.006E-03    4.006E-03          10
    6      1.600E-03    1.600E-03          12
    7      5.381E-04    5.381E-04          14
    8      2.000E-04    2.000E-04          16
    9      5.840E-05    5.840E-05          18
    10     2.007E-05    2.007E-05          20
    11     7.015E-06    7.015E-06          21
    12     3.022E-06    3.022E-06          23
    13     1.006E-06    1.006E-06          25
    14     3.057E-07    3.057E-07          27
    15     7.636E-08    7.636E-08          29
    16     2.451E-08    2.451E-08          31
    17     6.003E-09*   6.003E-09*         33
    -----------------------------------------

    Ind20,r (A<-B)      =    -0.000389149584 [Eh]
    Ind20,r (B<-A)      =    -0.000389149583 [Eh]
    Ind20,r             =    -0.000778299168 [Eh]
    Exch-Ind20,r (A<-B) =     0.000042761673 [Eh]
    Exch-Ind20,r (B<-A) =     0.000042761673 [Eh]
    Exch-Ind20,r        =     0.000085523347 [Eh]

  ==> F-SAPT Localization (IBO) <==

  Local Orbitals for Monomer A:

  ==> IBO Localizer 2 <==

    MinAO Basis = CC-PVTZ-MINAO
    Use Ghosts  =       FALSE
    Use Stars   =       FALSE
    Condition   =   1.000E-07
    Power       =           4
    Convergence =   1.000E-12
    Maxiter     =        1000

    @IBO Iter:                   Metric       Gradient
    @IBO    1:   1.6143810633624305E+00   1.521072E+00
    @IBO    2:   1.7422420480933816E+00   7.460085E-01
    @IBO    3:   1.7861876324845856E+00   4.780563E-01
    @IBO    4:   1.7945655954392359E+00   1.016548E-01
    @IBO    5:   1.7946971339604398E+00   9.251557E-04
    @IBO    6:   1.7946971636183426E+00   1.119669E-04
    @IBO    7:   1.7946971640518097E+00   1.588020E-05
    @IBO    8:   1.7946971640639746E+00   2.948570E-06
    @IBO    9:   1.7946971640644649E+00   6.063166E-07
    @IBO   10:   1.7946971640644869E+00   1.280303E-07
    @IBO   11:   1.7946971640644880E+00   2.705056E-08
    @IBO   12:   1.7946971640644880E+00   5.691042E-09
    @IBO   13:   1.7946971640644882E+00   1.193435E-09
    @IBO   14:   1.7946971640644880E+00   2.499805E-10
    @IBO   15:   1.7946971640644884E+00   5.240369E-11
    @IBO   16:   1.7946971640644882E+00   1.101158E-11
    @IBO   17:   1.7946971640644882E+00   2.322090E-12
    @IBO   18:   1.7946971640644880E+00   4.918463E-13

    IBO Localizer 2 converged.

  Local Orbitals for Monomer B:

  ==> IBO Localizer 2 <==

    MinAO Basis = CC-PVTZ-MINAO
    Use Ghosts  =       FALSE
    Use Stars   =       FALSE
    Condition   =   1.000E-07
    Power       =           4
    Convergence =   1.000E-12
    Maxiter     =        1000

    @IBO Iter:                   Metric       Gradient
    @IBO    1:   1.6143810621360839E+00   1.521072E+00
    @IBO    2:   1.7422420480545098E+00   7.460085E-01
    @IBO    3:   1.7861876324114174E+00   4.780563E-01
    @IBO    4:   1.7945655954383990E+00   1.016548E-01
    @IBO    5:   1.7946971339597484E+00   9.251557E-04
    @IBO    6:   1.7946971636176521E+00   1.119669E-04
    @IBO    7:   1.7946971640511191E+00   1.588020E-05
    @IBO    8:   1.7946971640632845E+00   2.948570E-06
    @IBO    9:   1.7946971640637743E+00   6.063166E-07
    @IBO   10:   1.7946971640637961E+00   1.280303E-07
    @IBO   11:   1.7946971640637972E+00   2.705056E-08
    @IBO   12:   1.7946971640637974E+00   5.691042E-09
    @IBO   13:   1.7946971640637974E+00   1.193435E-09
    @IBO   14:   1.7946971640637974E+00   2.499804E-10
    @IBO   15:   1.7946971640637976E+00   5.240369E-11
    @IBO   16:   1.7946971640637976E+00   1.101158E-11
    @IBO   17:   1.7946971640637976E+00   2.322093E-12
    @IBO   18:   1.7946971640637974E+00   4.918292E-13

    IBO Localizer 2 converged.

  ==> F-SAPT Electrostatics <==

  DFHelper Memory: AOs need 1.554 GiB; user supplied 10.547 GiB. Using in-core AOs.

  ==> DFHelper <==
    NBF:                             358
    NAux:                           1586
    Schwarz Cutoff:                1E-12
    Mask sparsity (%):                16
    DFH Avail. Memory [GiB]:      10.547
    OpenMP threads:                    1
    Algorithm:                DIRECT_iaQ
    AO Core:                        True
    MO Core:                       False
    Hold Metric:                   False
    Metric Power:                 -0.500
    Fitting Condition:             1E-12
    Q Shell Max:                       7


    Elst10,r            =     0.006892323326 [Eh]

  ==> F-SAPT Exchange <==

    Exch10(S^2)         =     0.000360375299 [Eh]

    Scaling F-SAPT Exch10(S^2) by   9.998E-01 to match Exch10

  ==> F-SAPT Induction <==

    Ind20,u (A<-B)      =    -0.000349702077 [Eh]
    Ind20,u (B<-A)      =    -0.000349702077 [Eh]
    Ind20,u             =    -0.000699404154 [Eh]
    Exch-Ind20,u (A<-B) =     0.000038540352 [Eh]
    Exch-Ind20,u (B<-A) =     0.000038540352 [Eh]
    Exch-Ind20,u        =     0.000077080704 [Eh]

    Scaling for delta HF        =   1.122E+00
    Scaling for response (A<-B) =   1.113E+00
    Scaling for response (B<-A) =   1.113E+00
    Scaling for total (A<-B)    =   1.249E+00
    Scaling for total (B<-A)    =   1.249E+00

  ==> F-SAPT Dispersion <==

  DFHelper Memory: AOs need 1.213 GiB; user supplied 10.541 GiB. Using in-core AOs.

  ==> DFHelper <==
    NBF:                             358
    NAux:                           1236
    Schwarz Cutoff:                1E-12
    Mask sparsity (%):                16
    DFH Avail. Memory [GiB]:      10.541
    OpenMP threads:                    1
    Algorithm:                DIRECT_iaQ
    AO Core:                        True
    MO Core:                       False
    Hold Metric:                   False
    Metric Power:                 -0.500
    Fitting Condition:             1E-12
    Q Shell Max:                       7


    1415577600 doubles - 1587685 overhead leaves 1413989915 for dispersion
    Processing a single (r,s) pair requires 168096 doubles
    325 values of r processed in 1 blocks of 325
    325 values of s processed in 1 blocks of 325

    Disp20              =    -0.001764654626 [Eh]
    Exch-Disp20         =     0.000039729614 [Eh]

  ==> F-SAPT Output <==

    F-SAPT Data Filepath = fsapt/

  ==> Scalar Field Plots <==

    F-SAPT Plot Filepath = plot/

  ==> CubicScalarGrid <==

    Filepath     = plot/
    Total Points =           885654
    XYZ Blocking =               10
    X Points     =              154
    Y Points     =               71
    Z Points     =               81
    X Spacing    =        2.000E-01
    Y Spacing    =        2.000E-01
    Z Spacing    =        2.000E-01
    X Minimum    =       -1.530E+01
    Y Minimum    =       -7.000E+00
    Z Minimum    =       -7.709E+00
    X Maximum    =        1.530E+01
    Y Maximum    =        7.000E+00
    Z Maximum    =        8.291E+00

  Basis Set: JUN-CC-PVDZ
    Blend: JUN-CC-PVDZ
    Number of shells: 170
    Number of basis functions: 358
    Number of Cartesian functions: 374
    Spherical Harmonics?: true
    Max angular momentum: 2

*********************************************************************************************************************
When computing potential integrals with different bra and ket basis, the atom definition is taken from the bra basis.
*********************************************************************************************************************
*********************************************************************************************************************
When computing potential integrals with different bra and ket basis, the atom definition is taken from the bra basis.
*********************************************************************************************************************
*********************************************************************************************************************
When computing potential integrals with different bra and ket basis, the atom definition is taken from the bra basis.
*********************************************************************************************************************
  ==> Results <==


    SAPT Results  
  --------------------------------------------------------------------------------------------------------
    Electrostatics                  6.89232347 [mEh]       4.32499827 [kcal/mol]      18.09579277 [kJ/mol]
      Elst10,r                      6.89232347 [mEh]       4.32499827 [kcal/mol]      18.09579277 [kJ/mol]

    Exchange                        0.36029233 [mEh]       0.22608685 [kcal/mol]       0.94594738 [kJ/mol]
      Exch10                        0.36029233 [mEh]       0.22608685 [kcal/mol]       0.94594738 [kJ/mol]
      Exch10(S^2)                   0.36037530 [mEh]       0.22613891 [kcal/mol]       0.94616522 [kJ/mol]

    Induction                      -0.77705479 [mEh]      -0.48760924 [kcal/mol]      -2.04015707 [kJ/mol]
      Ind20,r                      -0.77829917 [mEh]      -0.48839010 [kcal/mol]      -2.04342418 [kJ/mol]
      Exch-Ind20,r                  0.08552335 [mEh]       0.05366671 [kcal/mol]       0.22454152 [kJ/mol]
      delta HF,r (2)               -0.08427897 [mEh]      -0.05288585 [kcal/mol]      -0.22127440 [kJ/mol]
      Induction (A<-B)             -0.38852740 [mEh]      -0.24380462 [kcal/mol]      -1.02007854 [kJ/mol]
      Induction (B<-A)             -0.38852739 [mEh]      -0.24380462 [kcal/mol]      -1.02007853 [kJ/mol]

    Dispersion                     -1.72492501 [mEh]      -1.08240679 [kcal/mol]      -4.52878999 [kJ/mol]
      Disp20                       -1.76465463 [mEh]      -1.10733750 [kcal/mol]      -4.63310008 [kJ/mol]
      Exch-Disp20                   0.03972961 [mEh]       0.02493071 [kcal/mol]       0.10431009 [kJ/mol]

  Total HF                          6.47556101 [mEh]       4.06347588 [kcal/mol]      17.00158308 [kJ/mol]
  Total SAPT0                       4.75063600 [mEh]       2.98106909 [kcal/mol]      12.47279309 [kJ/mol]

  --------------------------------------------------------------------------------------------------------
    Han Solo: This is *not* gonna work.
    Luke Skywalker: Why didn't you say so before?
    Han Solo: I *did* say so before.

    Psi4 stopped on: Thursday, 09 November 2023 03:52PM
    Psi4 wall time for execution: 0:11:38.27

*** Psi4 exiting successfully. Buy a developer a beer!
