
    -----------------------------------------------------------------------
          Psi4: An Open-Source Ab Initio Electronic Structure Package
                               Psi4 1.7 release

                         Git: Rev {HEAD} 6ce35a5 


    D. G. A. Smith, L. A. Burns, A. C. Simmonett, R. M. Parrish,
    M. C. Schieber, R. Galvelis, P. Kraus, H. Kruse, R. Di Remigio,
    A. Alenaizan, A. M. James, S. Lehtola, J. P. Misiewicz, M. Scheurer,
    R. A. Shaw, J. B. Schriber, Y. Xie, Z. L. Glick, D. A. Sirianni,
    J. S. O'Brien, J. M. Waldrop, A. Kumar, E. G. Hohenstein,
    B. P. Pritchard, B. R. Brooks, H. F. Schaefer III, A. Yu. Sokolov,
    K. Patkowski, A. E. DePrince III, U. Bozkaya, R. A. King,
    F. A. Evangelista, J. M. Turney, T. D. Crawford, C. D. Sherrill,
    J. Chem. Phys. 152(18) 184108 (2020). https://doi.org/10.1063/5.0006002

                            Additional Code Authors
    E. T. Seidl, C. L. Janssen, E. F. Valeev, M. L. Leininger,
    J. F. Gonthier, R. M. Richard, H. R. McAlexander, M. Saitow, X. Wang,
    P. Verma, M. H. Lechner, A. Jiang, S. Behnle, A. G. Heide,
    M. F. Herbst, and D. L. Poole

             Previous Authors, Complete List of Code Contributors,
                       and Citations for Specific Modules
    https://github.com/psi4/psi4/blob/master/codemeta.json
    https://github.com/psi4/psi4/graphs/contributors
    http://psicode.org/psi4manual/master/introduction.html#citing-psifour

    -----------------------------------------------------------------------


    Psi4 started on: Thursday, 09 November 2023 03:28PM

    Process ID: 8580
    Host:       DESKTOP-D4OA462
    PSIDATADIR: C:\Users\Ivan\.conda\envs\psi4\lib\share\psi4
    Memory:     500.0 MiB
    Threads:    1
    
  ==> Input File <==

--------------------------------------------------------------------------
memory 12000 MiB
mol = psi4.core.Molecule.from_arrays(
    elez=[8,6,6,6,6,6,6,1,1,1,1,1,8,6,6,6,6,6,6,1,1,1,1,1,6,1,1,6,1,1],
    fragment_separators=[12, 24],
    fix_com=True,
    fix_orientation=True,
    fix_symmetry='c1',
    fragment_multiplicities=[2, 2, 1],
    molecular_charge=0,
    molecular_multiplicity=1,
    geom= [
       -1.574614596,      1.749489475,      0.095864865,
       -2.439609580,      0.773421408,     -0.283515662,
       -3.740894766,      1.192689054,     -0.552489483,
       -2.104500510,     -0.570521729,     -0.409131978,
       -4.698690396,      0.273070107,     -0.933839146,
       -3.080935269,     -1.482430717,     -0.792964532,
       -4.376505933,     -1.073841251,     -1.055820856,
       -3.978633778,      2.243891512,     -0.448747047,
       -1.096692637,     -0.917749155,     -0.227492920,
       -5.707758208,      0.611178259,     -1.136798844,
       -2.810827528,     -2.527292764,     -0.889706708,
       -5.128535468,     -1.792660509,     -1.355105394,
                                                        
        1.215050949,     -0.223563465,     -0.715220687,
        2.298185718,     -0.357284169,      0.089303510,
        2.838166720,      0.665526486,      0.861118876,
        2.881330494,     -1.622690271,      0.113538187,
        3.960169336,      0.415110363,      1.642233224,
        3.994322816,     -1.856957020,      0.897130330,
        4.544350795,     -0.838739638,      1.667535858,
        2.401121893,      1.654540553,      0.864792160,
        2.445825285,     -2.404786229,     -0.495465450,
        4.374557182,      1.219391445,      2.238176615,
        4.439724368,     -2.844571264,      0.904759804,
        5.418098652,     -1.024124816,      2.278799299,
                                                        
       -0.254607862,      1.384563598,      0.429060224,
        0.142064276,      2.252099811,      0.956233144,
       -0.246294901,      0.536372512,      1.122112732,
        0.590702425,      1.040201235,     -0.802554035,
       -0.068254904,      0.973844699,     -1.667608989,
        1.336606633,      1.813450200,     -1.007336796])
activate(mol)       
                    
set {               
basis jun-cc-pvdz   
scf_type df
guess sad
freeze_core true
fisapt_do_plot true
}
energy('fisapt0')
--------------------------------------------------------------------------

  Memory set to  11.719 GiB by Python driver.

Scratch directory: C:\Users\Ivan\AppData\Local\Temp/

*** tstart() called on DESKTOP-D4OA462
*** at Thu Nov  9 15:28:27 2023

   => Loading Basis Set <=

    Name: JUN-CC-PVDZ
    Role: ORBITAL
    Keyword: BASIS
    atoms 1, 13                     entry O          line   232 file C:\Users\Ivan\.conda\envs\psi4\lib\share\psi4\basis\jun-cc-pvdz.gbs 
    atoms 2-7, 14-19, 25, 28        entry C          line   164 file C:\Users\Ivan\.conda\envs\psi4\lib\share\psi4\basis\jun-cc-pvdz.gbs 
    atoms 8-12, 20-24, 26-27, 29-30 entry H          line    36 file C:\Users\Ivan\.conda\envs\psi4\lib\share\psi4\basis\jun-cc-pvdz.gbs 


         ---------------------------------------------------------
                                   SCF
               by Justin Turney, Rob Parrish, Andy Simmonett
                          and Daniel G. A. Smith
                              RHF Reference
                        1 Threads,   -288 MiB Core
         ---------------------------------------------------------

  ==> Geometry <==

    Molecular point group: c1
    Full point group: C1

    Geometry (in Angstrom), charge = 0, multiplicity = 1:

       Center              X                  Y                   Z               Mass       
    ------------   -----------------  -----------------  -----------------  -----------------
         O           -1.574614596000     1.749489475000     0.095864865000    15.994914619570
         C           -2.439609580000     0.773421408000    -0.283515662000    12.000000000000
         C           -3.740894766000     1.192689054000    -0.552489483000    12.000000000000
         C           -2.104500510000    -0.570521729000    -0.409131978000    12.000000000000
         C           -4.698690396000     0.273070107000    -0.933839146000    12.000000000000
         C           -3.080935269000    -1.482430717000    -0.792964532000    12.000000000000
         C           -4.376505933000    -1.073841251000    -1.055820856000    12.000000000000
         H           -3.978633778000     2.243891512000    -0.448747047000     1.007825032230
         H           -1.096692637000    -0.917749155000    -0.227492920000     1.007825032230
         H           -5.707758208000     0.611178259000    -1.136798844000     1.007825032230
         H           -2.810827528000    -2.527292764000    -0.889706708000     1.007825032230
         H           -5.128535468000    -1.792660509000    -1.355105394000     1.007825032230
         O            1.215050949000    -0.223563465000    -0.715220687000    15.994914619570
         C            2.298185718000    -0.357284169000     0.089303510000    12.000000000000
         C            2.838166720000     0.665526486000     0.861118876000    12.000000000000
         C            2.881330494000    -1.622690271000     0.113538187000    12.000000000000
         C            3.960169336000     0.415110363000     1.642233224000    12.000000000000
         C            3.994322816000    -1.856957020000     0.897130330000    12.000000000000
         C            4.544350795000    -0.838739638000     1.667535858000    12.000000000000
         H            2.401121893000     1.654540553000     0.864792160000     1.007825032230
         H            2.445825285000    -2.404786229000    -0.495465450000     1.007825032230
         H            4.374557182000     1.219391445000     2.238176615000     1.007825032230
         H            4.439724368000    -2.844571264000     0.904759804000     1.007825032230
         H            5.418098652000    -1.024124816000     2.278799299000     1.007825032230
         C           -0.254607862000     1.384563598000     0.429060224000    12.000000000000
         H            0.142064276000     2.252099811000     0.956233144000     1.007825032230
         H           -0.246294901000     0.536372512000     1.122112732000     1.007825032230
         C            0.590702425000     1.040201235000    -0.802554035000    12.000000000000
         H           -0.068254904000     0.973844699000    -1.667608989000     1.007825032230
         H            1.336606633000     1.813450200000    -1.007336796000     1.007825032230

  Running in c1 symmetry.

  Rotational constants: A =      0.05040  B =      0.00767  C =      0.00696 [cm^-1]
  Rotational constants: A =   1510.83600  B =    230.08597  C =    208.58746 [MHz]
  Nuclear repulsion = 1008.083811432900688

  Charge       = 0
  Multiplicity = 1
  Electrons    = 114
  Nalpha       = 57
  Nbeta        = 57

  ==> Algorithm <==

  SCF Algorithm Type is DF.
  DIIS enabled.
  MOM disabled.
  Fractional occupation disabled.
  Guess Type is SAD.
  Energy threshold   = 1.00e-08
  Density threshold  = 1.00e-08
  Integral threshold = 1.00e-12

  ==> Primary Basis <==

  Basis Set: JUN-CC-PVDZ
    Blend: JUN-CC-PVDZ
    Number of shells: 170
    Number of basis functions: 358
    Number of Cartesian functions: 374
    Spherical Harmonics?: true
    Max angular momentum: 2

   => Loading Basis Set <=

    Name: (JUN-CC-PVDZ AUX)
    Role: JKFIT
    Keyword: DF_BASIS_SCF
    atoms 1, 13                     entry O          line   258 file C:\Users\Ivan\.conda\envs\psi4\lib\share\psi4\basis\jun-cc-pvdz-jkfit.gbs 
    atoms 2-7, 14-19, 25, 28        entry C          line   146 file C:\Users\Ivan\.conda\envs\psi4\lib\share\psi4\basis\jun-cc-pvdz-jkfit.gbs 
    atoms 8-12, 20-24, 26-27, 29-30 entry H          line    70 file C:\Users\Ivan\.conda\envs\psi4\lib\share\psi4\basis\jun-cc-pvdz-jkfit.gbs 

  ==> Integral Setup <==

  DFHelper Memory: AOs need 1.333 GiB; user supplied 8.789 GiB. Using in-core AOs.

  ==> MemDFJK: Density-Fitted J/K Matrices <==

    J tasked:                   Yes
    K tasked:                   Yes
    wK tasked:                   No
    OpenMP threads:               1
    Memory [MiB]:              9000
    Algorithm:                 Core
    Schwarz Cutoff:           1E-12
    Mask sparsity (%):      14.5922
    Fitting Condition:        1E-10

   => Auxiliary Basis Set <=

  Basis Set: (JUN-CC-PVDZ AUX)
    Blend: JUN-CC-PVDZ-JKFIT
    Number of shells: 558
    Number of basis functions: 1586
    Number of Cartesian functions: 1806
    Spherical Harmonics?: true
    Max angular momentum: 3

  Minimum eigenvalue in the overlap matrix is 6.4560473891E-06.
  Reciprocal condition number of the overlap matrix is 4.6489033947E-07.
    Using symmetric orthogonalization.

  ==> Pre-Iterations <==

  SCF Guess: Superposition of Atomic Densities via on-the-fly atomic UHF (no occupation information).

   -------------------------
    Irrep   Nso     Nmo    
   -------------------------
     A        358     358 
   -------------------------
    Total     358     358
   -------------------------

  ==> Iterations <==

                           Total Energy        Delta E     RMS |[F,P]|

   @DF-RHF iter SAD:  -687.65413866813356   -6.87654e+02   0.00000e+00 
   @DF-RHF iter   1:  -687.66824463543128   -1.41060e-02   2.19211e-03 ADIIS/DIIS
   @DF-RHF iter   2:  -688.00349220092687   -3.35248e-01   9.63331e-04 ADIIS/DIIS
   @DF-RHF iter   3:  -688.06543908881758   -6.19469e-02   1.96898e-04 ADIIS/DIIS
   @DF-RHF iter   4:  -688.06944503366628   -4.00594e-03   6.80791e-05 DIIS
   @DF-RHF iter   5:  -688.06978504868721   -3.40015e-04   1.50699e-05 DIIS
   @DF-RHF iter   6:  -688.06981299656070   -2.79479e-05   5.36062e-06 DIIS
   @DF-RHF iter   7:  -688.06981663374950   -3.63719e-06   1.80627e-06 DIIS
   @DF-RHF iter   8:  -688.06981723490992   -6.01160e-07   5.87470e-07 DIIS
   @DF-RHF iter   9:  -688.06981732832105   -9.34111e-08   2.46018e-07 DIIS
   @DF-RHF iter  10:  -688.06981734213093   -1.38099e-08   1.12237e-07 DIIS
   @DF-RHF iter  11:  -688.06981734742021   -5.28928e-09   4.73847e-08 DIIS
   @DF-RHF iter  12:  -688.06981734835722   -9.37007e-10   1.94076e-08 DIIS
   @DF-RHF iter  13:  -688.06981734844430   -8.70841e-11   5.33616e-09 DIIS
  Energy and wave function converged.


  ==> Post-Iterations <==

    Orbital Energies [Eh]
    ---------------------

    Doubly Occupied:                                                      

       1A    -20.599385     2A    -20.595054     3A    -11.312156  
       4A    -11.304631     5A    -11.300994     6A    -11.300375  
       7A    -11.251344     8A    -11.249409     9A    -11.243781  
      10A    -11.243572    11A    -11.242994    12A    -11.238042  
      13A    -11.236829    14A    -11.234041    15A    -11.232241  
      16A    -11.230902    17A     -1.435174    18A     -1.423727  
      19A     -1.161420    20A     -1.154468    21A     -1.058665  
      22A     -1.029122    23A     -1.022579    24A     -1.020171  
      25A     -0.986514    26A     -0.898063    27A     -0.844622  
      28A     -0.837582    29A     -0.820025    30A     -0.801883  
      31A     -0.737292    32A     -0.729954    33A     -0.692366  
      34A     -0.676848    35A     -0.673343    36A     -0.665073  
      37A     -0.656568    38A     -0.628095    39A     -0.617026  
      40A     -0.599806    41A     -0.592270    42A     -0.589388  
      43A     -0.583848    44A     -0.577675    45A     -0.535224  
      46A     -0.523972    47A     -0.519480    48A     -0.518166  
      49A     -0.507505    50A     -0.490453    51A     -0.485608  
      52A     -0.478353    53A     -0.458729    54A     -0.348319  
      55A     -0.340732    56A     -0.321146    57A     -0.311975  

    Virtual:                                                              

      58A      0.055723    59A      0.061141    60A      0.061731  
      61A      0.067189    62A      0.073361    63A      0.077021  
      64A      0.087421    65A      0.088342    66A      0.098963  
      67A      0.100803    68A      0.104658    69A      0.108541  
      70A      0.109991    71A      0.111767    72A      0.116941  
      73A      0.121398    74A      0.122255    75A      0.126699  
      76A      0.130089    77A      0.137641    78A      0.140841  
      79A      0.146255    80A      0.154503    81A      0.155593  
      82A      0.161928    83A      0.168261    84A      0.168403  
      85A      0.175751    86A      0.181032    87A      0.183206  
      88A      0.186639    89A      0.198498    90A      0.199790  
      91A      0.204587    92A      0.208253    93A      0.214340  
      94A      0.215655    95A      0.218532    96A      0.223812  
      97A      0.230693    98A      0.235897    99A      0.242711  
     100A      0.245823   101A      0.252817   102A      0.254667  
     103A      0.265454   104A      0.266323   105A      0.272233  
     106A      0.279740   107A      0.283861   108A      0.285910  
     109A      0.288722   110A      0.293170   111A      0.293792  
     112A      0.299559   113A      0.305539   114A      0.310440  
     115A      0.316712   116A      0.323306   117A      0.324877  
     118A      0.334112   119A      0.336651   120A      0.344509  
     121A      0.351232   122A      0.354068   123A      0.363371  
     124A      0.372441   125A      0.375037   126A      0.379128  
     127A      0.382505   128A      0.391556   129A      0.396086  
     130A      0.403076   131A      0.403398   132A      0.415243  
     133A      0.426067   134A      0.432945   135A      0.436742  
     136A      0.438534   137A      0.442800   138A      0.450833  
     139A      0.467022   140A      0.475914   141A      0.485467  
     142A      0.488044   143A      0.494178   144A      0.502522  
     145A      0.511726   146A      0.516712   147A      0.541545  
     148A      0.547478   149A      0.553894   150A      0.568690  
     151A      0.571976   152A      0.591331   153A      0.601348  
     154A      0.631456   155A      0.709870   156A      0.714031  
     157A      0.748054   158A      0.768029   159A      0.773964  
     160A      0.791350   161A      0.796763   162A      0.813139  
     163A      0.817957   164A      0.826136   165A      0.828798  
     166A      0.830890   167A      0.847955   168A      0.855879  
     169A      0.859823   170A      0.863365   171A      0.877980  
     172A      0.889241   173A      0.894618   174A      0.906039  
     175A      0.922294   176A      0.925096   177A      0.927408  
     178A      0.931933   179A      0.940331   180A      0.943423  
     181A      0.947326   182A      0.950994   183A      0.957513  
     184A      0.959460   185A      0.965362   186A      0.969484  
     187A      0.969957   188A      0.978291   189A      0.985935  
     190A      0.986560   191A      0.990385   192A      1.002922  
     193A      1.003572   194A      1.011195   195A      1.024258  
     196A      1.027036   197A      1.041139   198A      1.054668  
     199A      1.064078   200A      1.070468   201A      1.090240  
     202A      1.110198   203A      1.130280   204A      1.137721  
     205A      1.149846   206A      1.154126   207A      1.172648  
     208A      1.182934   209A      1.185687   210A      1.202396  
     211A      1.219477   212A      1.223977   213A      1.235228  
     214A      1.244520   215A      1.252551   216A      1.255577  
     217A      1.264064   218A      1.265900   219A      1.268658  
     220A      1.279699   221A      1.282201   222A      1.297524  
     223A      1.301069   224A      1.319670   225A      1.323697  
     226A      1.338617   227A      1.354332   228A      1.358221  
     229A      1.366784   230A      1.370533   231A      1.376936  
     232A      1.398884   233A      1.405227   234A      1.420649  
     235A      1.483515   236A      1.498571   237A      1.507848  
     238A      1.511274   239A      1.513067   240A      1.559349  
     241A      1.562751   242A      1.606535   243A      1.652215  
     244A      1.673173   245A      1.690668   246A      1.713428  
     247A      1.726082   248A      1.734112   249A      1.754628  
     250A      1.762160   251A      1.765746   252A      1.769116  
     253A      1.777353   254A      1.782125   255A      1.806841  
     256A      1.811820   257A      1.826016   258A      1.841715  
     259A      1.865504   260A      1.898258   261A      1.910095  
     262A      1.914724   263A      1.923359   264A      1.925509  
     265A      1.929185   266A      1.941460   267A      1.950441  
     268A      1.951570   269A      1.957843   270A      1.962554  
     271A      1.975250   272A      1.982761   273A      1.984336  
     274A      1.989056   275A      2.000521   276A      2.021182  
     277A      2.033568   278A      2.040093   279A      2.050170  
     280A      2.055897   281A      2.066142   282A      2.070312  
     283A      2.071396   284A      2.085723   285A      2.096244  
     286A      2.100571   287A      2.108350   288A      2.123959  
     289A      2.155651   290A      2.164104   291A      2.174728  
     292A      2.177941   293A      2.184064   294A      2.188636  
     295A      2.195782   296A      2.203808   297A      2.207743  
     298A      2.212806   299A      2.234747   300A      2.252049  
     301A      2.262361   302A      2.271112   303A      2.279619  
     304A      2.291561   305A      2.313132   306A      2.326841  
     307A      2.358902   308A      2.383704   309A      2.401053  
     310A      2.415943   311A      2.421068   312A      2.426580  
     313A      2.462944   314A      2.483396   315A      2.500885  
     316A      2.516228   317A      2.517586   318A      2.532371  
     319A      2.558982   320A      2.575666   321A      2.630097  
     322A      2.671049   323A      2.745372   324A      2.763510  
     325A      2.776149   326A      2.796546   327A      2.807908  
     328A      2.814153   329A      2.839914   330A      2.844689  
     331A      2.852373   332A      2.863799   333A      2.876534  
     334A      2.894367   335A      2.937695   336A      2.973919  
     337A      3.011628   338A      3.023956   339A      3.045631  
     340A      3.059441   341A      3.096544   342A      3.106825  
     343A      3.184008   344A      3.192816   345A      3.237727  
     346A      3.286260   347A      3.291344   348A      3.300498  
     349A      3.397607   350A      3.442098   351A      3.544552  
     352A      3.559989   353A      3.744365   354A      3.754858  
     355A      3.878918   356A      3.900295   357A      4.118899  
     358A      4.123542  

    Final Occupation by Irrep:
              A 
    DOCC [    57 ]
    NA   [    57 ]
    NB   [    57 ]

  @DF-RHF Final Energy:  -688.06981734844430

   => Energetics <=

    Nuclear Repulsion Energy =           1008.0838114329006885
    One-Electron Energy =               -2935.9693001610389729
    Two-Electron Energy =                1239.8156713796938675
    Total Energy =                       -688.0698173484443032

Computation Completed


Properties will be evaluated at   0.000000,   0.000000,   0.000000 [a0]

Properties computed using the SCF density matrix


 Multipole Moments:

 ------------------------------------------------------------------------------------
     Multipole            Electronic (a.u.)      Nuclear  (a.u.)        Total (a.u.)
 ------------------------------------------------------------------------------------

 L = 1.  Multiply by 2.5417464519 to convert [e a0] to [Debye]
 Dipole X            :         -1.6874319            2.1040128            0.4165809
 Dipole Y            :          0.7558644           -0.6544177            0.1014467
 Dipole Z            :         -2.4715697            2.6444679            0.1728982
 Magnitude           :                                                    0.4623038

 ------------------------------------------------------------------------------------

*** tstop() called on DESKTOP-D4OA462 at Thu Nov  9 15:29:07 2023
Module time:
	user time   =        nan seconds =        nan minutes
	system time =        nan seconds =        nan minutes
	total time  =         40 seconds =       0.67 minutes
Total time:
	user time   =        nan seconds =        nan minutes
	system time =        nan seconds =        nan minutes
	total time  =         40 seconds =       0.67 minutes
  Constructing Basis Sets for FISAPT...

   => Loading Basis Set <=

    Name: (JUN-CC-PVDZ AUX)
    Role: JKFIT
    Keyword: DF_BASIS_SCF
    atoms 1, 13                     entry O          line   258 file C:\Users\Ivan\.conda\envs\psi4\lib\share\psi4\basis\jun-cc-pvdz-jkfit.gbs 
    atoms 2-7, 14-19, 25, 28        entry C          line   146 file C:\Users\Ivan\.conda\envs\psi4\lib\share\psi4\basis\jun-cc-pvdz-jkfit.gbs 
    atoms 8-12, 20-24, 26-27, 29-30 entry H          line    70 file C:\Users\Ivan\.conda\envs\psi4\lib\share\psi4\basis\jun-cc-pvdz-jkfit.gbs 

   => Loading Basis Set <=

    Name: (JUN-CC-PVDZ AUX)
    Role: RIFIT
    Keyword: DF_BASIS_SAPT
    atoms 1, 13                     entry O          line   188 file C:\Users\Ivan\.conda\envs\psi4\lib\share\psi4\basis\jun-cc-pvdz-ri.gbs 
    atoms 2-7, 14-19, 25, 28        entry C          line   100 file C:\Users\Ivan\.conda\envs\psi4\lib\share\psi4\basis\jun-cc-pvdz-ri.gbs 
    atoms 8-12, 20-24, 26-27, 29-30 entry H          line    30 file C:\Users\Ivan\.conda\envs\psi4\lib\share\psi4\basis\jun-cc-pvdz-ri.gbs 

   => Loading Basis Set <=

    Name: CC-PVTZ-MINAO
    Role: ORBITAL
    Keyword: BASIS
    atoms 1, 13                     entry O          line   179 file C:\Users\Ivan\.conda\envs\psi4\lib\share\psi4\basis\cc-pvtz-minao.gbs 
    atoms 2-7, 14-19, 25, 28        entry C          line   119 file C:\Users\Ivan\.conda\envs\psi4\lib\share\psi4\basis\cc-pvtz-minao.gbs 
    atoms 8-12, 20-24, 26-27, 29-30 entry H          line    20 file C:\Users\Ivan\.conda\envs\psi4\lib\share\psi4\basis\cc-pvtz-minao.gbs 

	 --------------------------------------------
	                    FISAPT0                  
	                  Rob Parrish                
	 --------------------------------------------

    Do F-SAPT =         Yes
    Do Plot   =         Yes
    Memory    =      10.547 [GiB]

  ==> Localization (IBO) <==

  ==> IBO Localizer 2 <==

    MinAO Basis = CC-PVTZ-MINAO
    Use Ghosts  =       FALSE
    Use Stars   =       FALSE
    Condition   =   1.000E-07
    Power       =           4
    Convergence =   1.000E-12
    Maxiter     =         200

    @IBO Iter:                   Metric       Gradient
    @IBO    1:   1.9318549419986921E+00   2.120191E+00
    @IBO    2:   2.1419124825925109E+00   1.326945E+00
    @IBO    3:   2.1999606713141113E+00   8.117634E-01
    @IBO    4:   2.2075257372149140E+00   2.723856E-01
    @IBO    5:   2.2080546746092455E+00   4.220207E-03
    @IBO    6:   2.2080547851510439E+00   1.475039E-04
    @IBO    7:   2.2080547856697899E+00   2.237932E-05
    @IBO    8:   2.2080547856836299E+00   3.728357E-06
    @IBO    9:   2.2080547856840465E+00   6.493625E-07
    @IBO   10:   2.2080547856840593E+00   1.179773E-07
    @IBO   11:   2.2080547856840602E+00   2.220225E-08
    @IBO   12:   2.2080547856840602E+00   4.305334E-09
    @IBO   13:   2.2080547856840602E+00   8.564847E-10
    @IBO   14:   2.2080547856840602E+00   1.741195E-10
    @IBO   15:   2.2080547856840602E+00   3.604162E-11
    @IBO   16:   2.2080547856840602E+00   7.569923E-12
    @IBO   17:   2.2080547856840602E+00   1.608187E-12
    @IBO   18:   2.2080547856840602E+00   3.446142E-13

    IBO Localizer 2 converged.

  ==> Partitioning <==

   => Atomic Partitioning <= 

    Monomer A:  12 atoms
    Monomer B:  12 atoms
    Monomer C:   6 atoms

   => Link Bond Identification <=

    Link Bond Selection = AUTOMATIC

    Charge Completeness = 0.800

    Total Link Bonds = 2

    --------------------------
    N     Orb Type Aind1 Aind2
    --------------------------
    1      37   AC     1    25
    2      40   BC    13    28
    --------------------------

   => Link Bond Assignment <=

    Link Bond Assignment      = C

   => Partition Summary <=

    Monomer A:  0 charge,  48 protons,  48 electrons,  24 docc
    Monomer B:  0 charge,  48 protons,  48 electrons,  24 docc
    Monomer C:  0 charge,  18 protons,  18 electrons,   9 docc

  ==> Overlap Integrals <==

  ==> Kinetic Integrals <==

  ==> Nuclear Integrals <==

    Nuclear Repulsion Tot:   1.0080838114329018E+03 [Eh]

  ==> Coulomb Integrals <==

  DFHelper Memory: AOs need 1.333 GiB; user supplied 10.544 GiB. Using in-core AOs.

  ==> MemDFJK: Density-Fitted J/K Matrices <==

    J tasked:                   Yes
    K tasked:                   Yes
    wK tasked:                   No
    OpenMP threads:               1
    Memory [MiB]:             10800
    Algorithm:                 Core
    Schwarz Cutoff:           1E-12
    Mask sparsity (%):      14.5922
    Fitting Condition:        1E-10

   => Auxiliary Basis Set <=

  Basis Set: (JUN-CC-PVDZ AUX)
    Blend: JUN-CC-PVDZ-JKFIT
    Number of shells: 558
    Number of basis functions: 1586
    Number of Cartesian functions: 1806
    Spherical Harmonics?: true
    Max angular momentum: 3

  ==> Relaxed SCF Equations <==

  ==> SCF A: <==

    Maxiter =         100
    E Tol   =   1.000E-08
    D Tol   =   1.000E-08

    Max DIIS Vectors = 10

    Iter   N:                        E          dE         |D|
    Iter   1:  -2.9743785555895920E+02  -2.974E+02   4.640E-04 
    Iter   2:  -2.9744174225143638E+02  -3.887E-03   2.428E-05 DIIS
    Iter   3:  -2.9744180447800426E+02  -6.223E-05   9.023E-06 DIIS
    Iter   4:  -2.9744181229480319E+02  -7.817E-06   4.519E-06 DIIS
    Iter   5:  -2.9744181455956414E+02  -2.265E-06   1.086E-06 DIIS
    Iter   6:  -2.9744181484464838E+02  -2.851E-07   5.225E-07 DIIS
    Iter   7:  -2.9744181491624158E+02  -7.159E-08   2.592E-07 DIIS
    Iter   8:  -2.9744181494098365E+02  -2.474E-08   8.421E-08 DIIS
    Iter   9:  -2.9744181494316075E+02  -2.177E-09   2.408E-08 DIIS
    Iter  10:  -2.9744181494328791E+02  -1.272E-10   8.329E-09 DIIS

    FISAPTSCF Converged.

    Final SCF Energy:  -2.9744181494328791E+02 [Eh]

   => Occupied Orbital Energies <=

       1  -20.588257     2  -11.303624     3  -11.244562  
       4  -11.242769     5  -11.235835     6  -11.230826  
       7  -11.230452     8   -1.230758     9   -1.128032  
      10   -1.021630    11   -0.970090    12   -0.833631  
      13   -0.792189    14   -0.690835    15   -0.652938  
      16   -0.618393    17   -0.590274    18   -0.587771  
      19   -0.577775    20   -0.516275    21   -0.493884  
      22   -0.482579    23   -0.341593    24   -0.313682  

   => Virtual Orbital Energies <=

      25    0.027547    26    0.047295    27    0.059360  
      28    0.063120    29    0.066716    30    0.072840  
      31    0.083841    32    0.084614    33    0.089380  
      34    0.095734    35    0.100742    36    0.107537  
      37    0.109782    38    0.111799    39    0.114915  
      40    0.119434    41    0.127022    42    0.127099  
      43    0.133937    44    0.136788    45    0.139863  
      46    0.148662    47    0.153060    48    0.156145  
      49    0.160527    50    0.164036    51    0.166582  
      52    0.169544    53    0.177644    54    0.180865  
      55    0.184283    56    0.186445    57    0.190660  
      58    0.196273    59    0.202256    60    0.209428  
      61    0.210403    62    0.216436    63    0.221748  
      64    0.222774    65    0.232276    66    0.236045  
      67    0.238167    68    0.243179    69    0.248803  
      70    0.250837    71    0.257372    72    0.266203  
      73    0.274273    74    0.278868    75    0.280112  
      76    0.287924    77    0.292128    78    0.293815  
      79    0.295756    80    0.307406    81    0.312454  
      82    0.318569    83    0.325625    84    0.340082  
      85    0.347148    86    0.350688    87    0.356759  
      88    0.364011    89    0.372113    90    0.374208  
      91    0.384442    92    0.395757    93    0.400667  
      94    0.405173    95    0.413086    96    0.424445  
      97    0.429145    98    0.433700    99    0.441520  
     100    0.444429   101    0.452301   102    0.455564  
     103    0.460082   104    0.466540   105    0.471677  
     106    0.475259   107    0.484030   108    0.485020  
     109    0.500378   110    0.505237   111    0.514899  
     112    0.521787   113    0.535288   114    0.554024  
     115    0.557646   116    0.567681   117    0.574822  
     118    0.579171   119    0.593286   120    0.596582  
     121    0.624643   122    0.632390   123    0.644440  
     124    0.663330   125    0.687155   126    0.709310  
     127    0.730071   128    0.737958   129    0.750681  
     130    0.753671   131    0.775839   132    0.784760  
     133    0.791374   134    0.808499   135    0.811502  
     136    0.830934   137    0.832156   138    0.851777  
     139    0.863877   140    0.868314   141    0.871949  
     142    0.897806   143    0.909601   144    0.917072  
     145    0.925635   146    0.932869   147    0.941625  
     148    0.949492   149    0.961965   150    0.968921  
     151    0.969341   152    0.978076   153    0.980184  
     154    0.983095   155    0.996335   156    1.004652  
     157    1.012543   158    1.020671   159    1.038208  
     160    1.053104   161    1.065154   162    1.088235  
     163    1.097128   164    1.124305   165    1.134443  
     166    1.140133   167    1.155651   168    1.171949  
     169    1.197949   170    1.200359   171    1.223653  
     172    1.241116   173    1.245379   174    1.258100  
     175    1.266062   176    1.270172   177    1.278806  
     178    1.288861   179    1.313904   180    1.322232  
     181    1.348342   182    1.361936   183    1.374854  
     184    1.381037   185    1.427024   186    1.491538  
     187    1.511445   188    1.518631   189    1.542837  
     190    1.593843   191    1.641262   192    1.653683  
     193    1.666680   194    1.673469   195    1.702504  
     196    1.718967   197    1.730483   198    1.743658  
     199    1.749196   200    1.760503   201    1.768111  
     202    1.770940   203    1.785648   204    1.791130  
     205    1.806644   206    1.812305   207    1.817008  
     208    1.830471   209    1.846923   210    1.858401  
     211    1.864034   212    1.901395   213    1.908956  
     214    1.916623   215    1.926255   216    1.929767  
     217    1.936401   218    1.950874   219    1.952398  
     220    1.967133   221    1.969082   222    1.983235  
     223    1.988405   224    1.997934   225    2.006869  
     226    2.012811   227    2.019666   228    2.032615  
     229    2.042182   230    2.056361   231    2.065134  
     232    2.076476   233    2.077202   234    2.094129  
     235    2.102511   236    2.111324   237    2.123089  
     238    2.129624   239    2.140546   240    2.147638  
     241    2.160830   242    2.174119   243    2.177504  
     244    2.185051   245    2.191654   246    2.196541  
     247    2.200490   248    2.210195   249    2.222703  
     250    2.227284   251    2.238428   252    2.260506  
     253    2.271821   254    2.289046   255    2.297488  
     256    2.301416   257    2.315819   258    2.325656  
     259    2.334306   260    2.341810   261    2.346655  
     262    2.366533   263    2.418976   264    2.422261  
     265    2.432829   266    2.448142   267    2.455144  
     268    2.472101   269    2.479963   270    2.490668  
     271    2.516713   272    2.526788   273    2.528839  
     274    2.547501   275    2.552674   276    2.574195  
     277    2.577018   278    2.595278   279    2.654700  
     280    2.667984   281    2.704662   282    2.713763  
     283    2.768820   284    2.772190   285    2.791175  
     286    2.803680   287    2.811311   288    2.816790  
     289    2.832888   290    2.849560   291    2.863683  
     292    2.880738   293    2.885349   294    2.924193  
     295    2.949672   296    2.962398   297    3.011530  
     298    3.043459   299    3.051535   300    3.065585  
     301    3.091408   302    3.107142   303    3.119995  
     304    3.137906   305    3.143381   306    3.191831  
     307    3.203067   308    3.256264   309    3.279975  
     310    3.291801   311    3.303100   312    3.404638  
     313    3.420850   314    3.448752   315    3.544242  
     316    3.567603   317    3.597069   318    3.649031  
     319    3.711003   320    3.754885   321    3.856243  
     322    3.896906   323    4.125263   324    4.143189  
     325    4.278971   326    4.303346   327    4.337276  
     328    4.347215   329    4.446404   330    4.516796  
     331    4.569636   332    4.762172   333    4.922863  
     334    5.047695   335    5.134064   336    5.387436  
     337    5.406645   338    5.465990   339    5.478427  
     340    5.560774   341    5.695909   342    6.027260  
     343   17.972479   344   18.123009   345   18.137371  
     346   18.583565   347   18.613422   348   19.257584  
     349   26.469191  

  ==> SCF B: <==

    Maxiter =         100
    E Tol   =   1.000E-08
    D Tol   =   1.000E-08

    Max DIIS Vectors = 10

    Iter   N:                        E          dE         |D|
    Iter   1:  -2.9731816358485804E+02  -2.973E+02   6.088E-04 
    Iter   2:  -2.9732662000924699E+02  -8.456E-03   3.542E-05 DIIS
    Iter   3:  -2.9732674843823349E+02  -1.284E-04   9.640E-06 DIIS
    Iter   4:  -2.9732675628284113E+02  -7.845E-06   5.326E-06 DIIS
    Iter   5:  -2.9732675842287034E+02  -2.140E-06   7.084E-07 DIIS
    Iter   6:  -2.9732675850505137E+02  -8.218E-08   3.118E-07 DIIS
    Iter   7:  -2.9732675852173264E+02  -1.668E-08   1.247E-07 DIIS
    Iter   8:  -2.9732675852633707E+02  -4.604E-09   5.428E-08 DIIS
    Iter   9:  -2.9732675852726146E+02  -9.244E-10   2.327E-08 DIIS
    Iter  10:  -2.9732675852746274E+02  -2.013E-10   6.131E-09 DIIS

    FISAPTSCF Converged.

    Final SCF Energy:  -2.9732675852746274E+02 [Eh]

   => Occupied Orbital Energies <=

       1  -20.583981     2  -11.301627     3  -11.242856  
       4  -11.240988     5  -11.233532     6  -11.228542  
       7  -11.228304     8   -1.228701     9   -1.126079  
      10   -1.019754    11   -0.968176    12   -0.831936  
      13   -0.790226    14   -0.689133    15   -0.650811  
      16   -0.616537    17   -0.588293    18   -0.584616  
      19   -0.575499    20   -0.514430    21   -0.491806  
      22   -0.480029    23   -0.339793    24   -0.310872  

   => Virtual Orbital Energies <=

      25    0.030007    26    0.050227    27    0.059332  
      28    0.061747    29    0.068409    30    0.071603  
      31    0.083852    32    0.087189    33    0.091760  
      34    0.098110    35    0.102509    36    0.105695  
      37    0.110446    38    0.114288    39    0.115967  
      40    0.122533    41    0.128483    42    0.130348  
      43    0.133984    44    0.136870    45    0.137846  
      46    0.146805    47    0.149097    48    0.159684  
      49    0.163843    50    0.167917    51    0.170823  
      52    0.171433    53    0.176011    54    0.181225  
      55    0.185700    56    0.190318    57    0.192339  
      58    0.199784    59    0.202268    60    0.209043  
      61    0.215068    62    0.219025    63    0.219400  
      64    0.220830    65    0.230934    66    0.234984  
      67    0.240385    68    0.248651    69    0.252217  
      70    0.256176    71    0.263557    72    0.270376  
      73    0.275450    74    0.280952    75    0.286249  
      76    0.287934    77    0.290047    78    0.297695  
      79    0.299626    80    0.302480    81    0.311947  
      82    0.328524    83    0.328690    84    0.334794  
      85    0.344209    86    0.354570    87    0.358512  
      88    0.368873    89    0.375485    90    0.382427  
      91    0.388934    92    0.395014    93    0.398504  
      94    0.400393    95    0.415705    96    0.429775  
      97    0.432584    98    0.434567    99    0.444523  
     100    0.448322   101    0.452422   102    0.459242  
     103    0.463637   104    0.466491   105    0.477568  
     106    0.487037   107    0.491908   108    0.498403  
     109    0.502135   110    0.505924   111    0.508039  
     112    0.518902   113    0.524506   114    0.541913  
     115    0.552757   116    0.559466   117    0.566215  
     118    0.602310   119    0.607162   120    0.616125  
     121    0.620029   122    0.630788   123    0.636981  
     124    0.657837   125    0.672029   126    0.692939  
     127    0.724505   128    0.744371   129    0.751980  
     130    0.767330   131    0.777286   132    0.792658  
     133    0.799088   134    0.803503   135    0.825620  
     136    0.834696   137    0.840284   138    0.858092  
     139    0.870649   140    0.879280   141    0.900147  
     142    0.902665   143    0.916299   144    0.926447  
     145    0.936931   146    0.945515   147    0.952058  
     148    0.959829   149    0.965163   150    0.971998  
     151    0.976665   152    0.979682   153    0.982396  
     154    0.985467   155    0.994795   156    0.997555  
     157    1.005531   158    1.006293   159    1.037818  
     160    1.046532   161    1.054435   162    1.078283  
     163    1.103800   164    1.126064   165    1.136315  
     166    1.155488   167    1.165105   168    1.174707  
     169    1.183729   170    1.204165   171    1.232227  
     172    1.239575   173    1.244742   174    1.256105  
     175    1.263806   176    1.276182   177    1.278989  
     178    1.286949   179    1.326333   180    1.347261  
     181    1.367588   182    1.372845   183    1.385596  
     184    1.394762   185    1.411054   186    1.481120  
     187    1.513083   188    1.527173   189    1.547082  
     190    1.574765   191    1.628346   192    1.656393  
     193    1.663102   194    1.678264   195    1.683138  
     196    1.731479   197    1.745851   198    1.748948  
     199    1.755060   200    1.767201   201    1.773230  
     202    1.774933   203    1.784712   204    1.800247  
     205    1.806905   206    1.807637   207    1.810747  
     208    1.838170   209    1.860466   210    1.863132  
     211    1.876123   212    1.896520   213    1.915721  
     214    1.919270   215    1.930949   216    1.936405  
     217    1.938364   218    1.946311   219    1.956967  
     220    1.966964   221    1.982798   222    1.984862  
     223    1.994329   224    2.001769   225    2.005090  
     226    2.015400   227    2.033020   228    2.040400  
     229    2.055520   230    2.061148   231    2.063413  
     232    2.067125   233    2.077931   234    2.092034  
     235    2.100380   236    2.120998   237    2.130090  
     238    2.132344   239    2.141088   240    2.146297  
     241    2.160259   242    2.182928   243    2.185015  
     244    2.188379   245    2.194625   246    2.198707  
     247    2.202777   248    2.206763   249    2.218575  
     250    2.243356   251    2.251684   252    2.268165  
     253    2.268427   254    2.286822   255    2.304037  
     256    2.304825   257    2.318928   258    2.337732  
     259    2.342985   260    2.350418   261    2.364317  
     262    2.376256   263    2.403199   264    2.421899  
     265    2.431497   266    2.432711   267    2.444524  
     268    2.456979   269    2.486687   270    2.504356  
     271    2.517339   272    2.526603   273    2.528151  
     274    2.542758   275    2.561269   276    2.574328  
     277    2.597428   278    2.610806   279    2.662368  
     280    2.676103   281    2.698800   282    2.719315  
     283    2.758375   284    2.776267   285    2.792457  
     286    2.799465   287    2.816048   288    2.821644  
     289    2.843058   290    2.847734   291    2.871529  
     292    2.880689   293    2.905857   294    2.919541  
     295    2.950470   296    2.973691   297    3.020453  
     298    3.027108   299    3.054944   300    3.066401  
     301    3.098076   302    3.104723   303    3.119560  
     304    3.133269   305    3.152958   306    3.192693  
     307    3.208779   308    3.245264   309    3.275628  
     310    3.295029   311    3.305480   312    3.407938  
     313    3.443864   314    3.476699   315    3.547421  
     316    3.567470   317    3.577148   318    3.656658  
     319    3.712033   320    3.763324   321    3.862797  
     322    3.901255   323    4.129884   324    4.144293  
     325    4.284075   326    4.318411   327    4.328138  
     328    4.347987   329    4.451697   330    4.511935  
     331    4.580415   332    4.770790   333    4.934506  
     334    5.057247   335    5.100111   336    5.386816  
     337    5.412750   338    5.463826   339    5.481297  
     340    5.563533   341    5.698607   342    6.017128  
     343   17.976786   344   18.129303   345   18.141098  
     346   18.590295   347   18.619648   348   19.268043  
     349   26.466758  

  ==> Frozen Core <==


    ------------------
    Range      A     B
    ------------------
    nbf      358   358
    nmo      349   349
    nocc      24    24
    nvir     325   325
    nfocc      7     7
    naocc     17    17
    navir    325   325
    nfvir      0     0
    ------------------

  ==> Unification <==

  ==> dHF <==

    E ABC(HF) =  -6.8806981734844430E+02 [Eh]
    E AC(0)   =  -3.8088036057163310E+02 [Eh]
    E BC(0)   =  -3.8089418766807802E+02 [Eh]
    E A(0)    =  -2.8266901027567803E+02 [Eh]
    E B(0)    =  -2.8267379657599395E+02 [Eh]
    E AC(HF)  =  -3.8087640118730576E+02 [Eh]
    E BC(HF)  =  -3.8088559272547360E+02 [Eh]
    E AB(HF)  =  -5.6532293984048408E+02 [Eh]
    E A(HF)   =  -2.8265529521727126E+02 [Eh]
    E B(HF)   =  -2.8265747406851324E+02 [Eh]
    E C       =  -7.3702347119026001E+01 [Eh]
    E HF      =   2.3837722408188711E-03 [Eh]

  ==> Electrostatics <==

    Elst10,r            =     0.000938489566 [Eh]

  ==> Exchange <==

    Exch10(S^2)         =     0.003243102374 [Eh]
    Exch10              =     0.003247337740 [Eh]

  ==> Induction <==

    Ind20,u (A<-B)      =    -0.001422549154 [Eh]
    Ind20,u (B<-A)      =    -0.001159431788 [Eh]
    Ind20,u             =    -0.002581980942 [Eh]
    Exch-Ind20,u (A<-B) =     0.000806477257 [Eh]
    Exch-Ind20,u (B<-A) =     0.000619432302 [Eh]
    Exch-Ind20,u        =     0.001425909559 [Eh]

  ==> CPHF Iterations <==

    Maxiter     =         100
    Convergence =   1.000E-08

    -----------------------------------------
    Iter   Monomer A    Monomer B    Time [s]
    -----------------------------------------
    1      1.332E-01    1.429E-01           2
    2      5.209E-02    5.785E-02           4
    3      1.482E-02    1.511E-02           6
    4      5.923E-03    6.016E-03           7
    5      3.168E-03    2.569E-03           9
    6      9.567E-04    1.057E-03          11
    7      3.382E-04    3.859E-04          13
    8      8.729E-05    1.019E-04          15
    9      2.865E-05    2.979E-05          17
    10     1.012E-05    1.197E-05          19
    11     1.972E-06    2.353E-06          21
    12     4.713E-07    6.074E-07          23
    13     1.669E-07    1.994E-07          25
    14     5.188E-08    5.141E-08          26
    15     2.862E-08    1.867E-08          28
    16     9.100E-09*   6.059E-09*         30
    -----------------------------------------

    Ind20,r (A<-B)      =    -0.001635661276 [Eh]
    Ind20,r (B<-A)      =    -0.001337366144 [Eh]
    Ind20,r             =    -0.002973027420 [Eh]
    Exch-Ind20,r (A<-B) =     0.000910750682 [Eh]
    Exch-Ind20,r (B<-A) =     0.000728132689 [Eh]
    Exch-Ind20,r        =     0.001638883371 [Eh]

  ==> F-SAPT Localization (IBO) <==

  Local Orbitals for Monomer A:

  ==> IBO Localizer 2 <==

    MinAO Basis = CC-PVTZ-MINAO
    Use Ghosts  =       FALSE
    Use Stars   =       FALSE
    Condition   =   1.000E-07
    Power       =           4
    Convergence =   1.000E-12
    Maxiter     =        1000

    @IBO Iter:                   Metric       Gradient
    @IBO    1:   1.6232913230325092E+00   1.454128E+00
    @IBO    2:   1.7434446544638427E+00   8.162024E-01
    @IBO    3:   1.7909936538206153E+00   4.016202E-01
    @IBO    4:   1.7948775861654938E+00   4.986475E-02
    @IBO    5:   1.7949068918438491E+00   6.150117E-04
    @IBO    6:   1.7949068994118733E+00   3.037251E-05
    @IBO    7:   1.7949068994920061E+00   5.142206E-06
    @IBO    8:   1.7949068994947468E+00   1.040012E-06
    @IBO    9:   1.7949068994948600E+00   2.341554E-07
    @IBO   10:   1.7949068994948651E+00   5.483532E-08
    @IBO   11:   1.7949068994948656E+00   1.283029E-08
    @IBO   12:   1.7949068994948654E+00   2.957502E-09
    @IBO   13:   1.7949068994948654E+00   6.700718E-10
    @IBO   14:   1.7949068994948651E+00   1.494333E-10
    @IBO   15:   1.7949068994948654E+00   3.287551E-11
    @IBO   16:   1.7949068994948656E+00   7.150189E-12
    @IBO   17:   1.7949068994948654E+00   1.540142E-12
    @IBO   18:   1.7949068994948656E+00   3.290368E-13

    IBO Localizer 2 converged.

  Local Orbitals for Monomer B:

  ==> IBO Localizer 2 <==

    MinAO Basis = CC-PVTZ-MINAO
    Use Ghosts  =       FALSE
    Use Stars   =       FALSE
    Condition   =   1.000E-07
    Power       =           4
    Convergence =   1.000E-12
    Maxiter     =        1000

    @IBO Iter:                   Metric       Gradient
    @IBO    1:   1.6178501964242014E+00   1.637106E+00
    @IBO    2:   1.7451930612243090E+00   7.551166E-01
    @IBO    3:   1.7905539575757237E+00   3.642599E-01
    @IBO    4:   1.7941621859315888E+00   8.307549E-02
    @IBO    5:   1.7942364811095333E+00   5.333787E-04
    @IBO    6:   1.7942364883954931E+00   3.705594E-05
    @IBO    7:   1.7942364884960067E+00   5.975152E-06
    @IBO    8:   1.7942364884990649E+00   1.081974E-06
    @IBO    9:   1.7942364884991788E+00   2.280006E-07
    @IBO   10:   1.7942364884991835E+00   5.237952E-08
    @IBO   11:   1.7942364884991835E+00   1.223857E-08
    @IBO   12:   1.7942364884991837E+00   2.824895E-09
    @IBO   13:   1.7942364884991837E+00   6.400309E-10
    @IBO   14:   1.7942364884991839E+00   1.424688E-10
    @IBO   15:   1.7942364884991837E+00   3.123582E-11
    @IBO   16:   1.7942364884991837E+00   6.762132E-12
    @IBO   17:   1.7942364884991837E+00   1.448526E-12
    @IBO   18:   1.7942364884991837E+00   3.075230E-13

    IBO Localizer 2 converged.

  ==> F-SAPT Electrostatics <==

  DFHelper Memory: AOs need 1.554 GiB; user supplied 10.547 GiB. Using in-core AOs.

  ==> DFHelper <==
    NBF:                             358
    NAux:                           1586
    Schwarz Cutoff:                1E-12
    Mask sparsity (%):                15
    DFH Avail. Memory [GiB]:      10.547
    OpenMP threads:                    1
    Algorithm:                DIRECT_iaQ
    AO Core:                        True
    MO Core:                       False
    Hold Metric:                   False
    Metric Power:                 -0.500
    Fitting Condition:             1E-12
    Q Shell Max:                       7


    Elst10,r            =     0.000938489484 [Eh]

  ==> F-SAPT Exchange <==

    Exch10(S^2)         =     0.003243102374 [Eh]

    Scaling F-SAPT Exch10(S^2) by   1.001E+00 to match Exch10

  ==> F-SAPT Induction <==

    Ind20,u (A<-B)      =    -0.001422549154 [Eh]
    Ind20,u (B<-A)      =    -0.001159431787 [Eh]
    Ind20,u             =    -0.002581980941 [Eh]
    Exch-Ind20,u (A<-B) =     0.000806477257 [Eh]
    Exch-Ind20,u (B<-A) =     0.000619432302 [Eh]
    Exch-Ind20,u        =     0.001425909559 [Eh]

    Scaling for delta HF        =   1.351E+00
    Scaling for response (A<-B) =   1.177E+00
    Scaling for response (B<-A) =   1.128E+00
    Scaling for total (A<-B)    =   1.589E+00
    Scaling for total (B<-A)    =   1.524E+00

  ==> F-SAPT Dispersion <==

  DFHelper Memory: AOs need 1.213 GiB; user supplied 10.541 GiB. Using in-core AOs.

  ==> DFHelper <==
    NBF:                             358
    NAux:                           1236
    Schwarz Cutoff:                1E-12
    Mask sparsity (%):                15
    DFH Avail. Memory [GiB]:      10.541
    OpenMP threads:                    1
    Algorithm:                DIRECT_iaQ
    AO Core:                        True
    MO Core:                       False
    Hold Metric:                   False
    Metric Power:                 -0.500
    Fitting Condition:             1E-12
    Q Shell Max:                       7


    1415577600 doubles - 1587685 overhead leaves 1413989915 for dispersion
    Processing a single (r,s) pair requires 168096 doubles
    325 values of r processed in 1 blocks of 325
    325 values of s processed in 1 blocks of 325

    Disp20              =    -0.002720375104 [Eh]
    Exch-Disp20         =     0.000187357526 [Eh]

  ==> F-SAPT Output <==

    F-SAPT Data Filepath = fsapt/

  ==> Scalar Field Plots <==

    F-SAPT Plot Filepath = plot/

  ==> CubicScalarGrid <==

    Filepath     = plot/
    Total Points =          1045170
    XYZ Blocking =               10
    X Points     =              147
    Y Points     =               90
    Z Points     =               79
    X Spacing    =        2.000E-01
    Y Spacing    =        2.000E-01
    Z Spacing    =        2.000E-01
    X Minimum    =       -1.487E+01
    Y Minimum    =       -9.460E+00
    Z Minimum    =       -7.223E+00
    X Maximum    =        1.433E+01
    Y Maximum    =        8.340E+00
    Z Maximum    =        8.377E+00

  Basis Set: JUN-CC-PVDZ
    Blend: JUN-CC-PVDZ
    Number of shells: 170
    Number of basis functions: 358
    Number of Cartesian functions: 374
    Spherical Harmonics?: true
    Max angular momentum: 2

*********************************************************************************************************************
When computing potential integrals with different bra and ket basis, the atom definition is taken from the bra basis.
*********************************************************************************************************************
*********************************************************************************************************************
When computing potential integrals with different bra and ket basis, the atom definition is taken from the bra basis.
*********************************************************************************************************************
*********************************************************************************************************************
When computing potential integrals with different bra and ket basis, the atom definition is taken from the bra basis.
*********************************************************************************************************************
  ==> Results <==


    SAPT Results  
  --------------------------------------------------------------------------------------------------------
    Electrostatics                  0.93848957 [mEh]       0.58891109 [kcal/mol]       2.46400402 [kJ/mol]
      Elst10,r                      0.93848957 [mEh]       0.58891109 [kcal/mol]       2.46400402 [kJ/mol]

    Exchange                        3.24733774 [mEh]       2.03773520 [kcal/mol]       8.52588406 [kJ/mol]
      Exch10                        3.24733774 [mEh]       2.03773520 [kcal/mol]       8.52588406 [kJ/mol]
      Exch10(S^2)                   3.24310237 [mEh]       2.03507746 [kcal/mol]       8.51476411 [kJ/mol]

    Induction                      -1.80205507 [mEh]      -1.13080663 [kcal/mol]      -4.73129492 [kJ/mol]
      Ind20,r                      -2.97302742 [mEh]      -1.86560287 [kcal/mol]      -7.80568242 [kJ/mol]
      Exch-Ind20,r                  1.63888337 [mEh]       1.02841484 [kcal/mol]       4.30288770 [kJ/mol]
      delta HF,r (2)               -0.46791102 [mEh]      -0.29361860 [kcal/mol]      -1.22850021 [kJ/mol]
      Induction (A<-B)             -0.97915125 [mEh]      -0.61442668 [kcal/mol]      -2.57076124 [kJ/mol]
      Induction (B<-A)             -0.82290382 [mEh]      -0.51637994 [kcal/mol]      -2.16053368 [kJ/mol]

    Dispersion                     -2.53301758 [mEh]      -1.58949253 [kcal/mol]      -6.65043673 [kJ/mol]
      Disp20                       -2.72037510 [mEh]      -1.70706115 [kcal/mol]      -7.14234385 [kJ/mol]
      Exch-Disp20                   0.18735753 [mEh]       0.11756862 [kcal/mol]       0.49190712 [kJ/mol]

  Total HF                          2.38377224 [mEh]       1.49583966 [kcal/mol]       6.25859316 [kJ/mol]
  Total SAPT0                      -0.14924534 [mEh]      -0.09365286 [kcal/mol]      -0.39184358 [kJ/mol]

  --------------------------------------------------------------------------------------------------------
    Han Solo: This is *not* gonna work.
    Luke Skywalker: Why didn't you say so before?
    Han Solo: I *did* say so before.

    Psi4 stopped on: Thursday, 09 November 2023 03:41PM
    Psi4 wall time for execution: 0:12:35.67

*** Psi4 exiting successfully. Buy a developer a beer!
