
    -----------------------------------------------------------------------
          Psi4: An Open-Source Ab Initio Electronic Structure Package
                               Psi4 1.7 release

                         Git: Rev {HEAD} 6ce35a5 


    D. G. A. Smith, L. A. Burns, A. C. Simmonett, R. M. Parrish,
    M. C. Schieber, R. Galvelis, P. Kraus, H. Kruse, R. Di Remigio,
    A. Alenaizan, A. M. James, S. Lehtola, J. P. Misiewicz, M. Scheurer,
    R. A. Shaw, J. B. Schriber, Y. Xie, Z. L. Glick, D. A. Sirianni,
    J. S. O'Brien, J. M. Waldrop, A. Kumar, E. G. Hohenstein,
    B. P. Pritchard, B. R. Brooks, H. F. Schaefer III, A. Yu. Sokolov,
    K. Patkowski, A. E. DePrince III, U. Bozkaya, R. A. King,
    F. A. Evangelista, J. M. Turney, T. D. Crawford, C. D. Sherrill,
    J. Chem. Phys. 152(18) 184108 (2020). https://doi.org/10.1063/5.0006002

                            Additional Code Authors
    E. T. Seidl, C. L. Janssen, E. F. Valeev, M. L. Leininger,
    J. F. Gonthier, R. M. Richard, H. R. McAlexander, M. Saitow, X. Wang,
    P. Verma, M. H. Lechner, A. Jiang, S. Behnle, A. G. Heide,
    M. F. Herbst, and D. L. Poole

             Previous Authors, Complete List of Code Contributors,
                       and Citations for Specific Modules
    https://github.com/psi4/psi4/blob/master/codemeta.json
    https://github.com/psi4/psi4/graphs/contributors
    http://psicode.org/psi4manual/master/introduction.html#citing-psifour

    -----------------------------------------------------------------------


    Psi4 started on: Thursday, 09 November 2023 12:54PM

    Process ID: 6420
    Host:       DESKTOP-D4OA462
    PSIDATADIR: C:\Users\Ivan\.conda\envs\psi4\lib\share\psi4
    Memory:     500.0 MiB
    Threads:    1
    
  ==> Input File <==

--------------------------------------------------------------------------
memory 12000 MiB
mol = psi4.core.Molecule.from_arrays(
    elez=[8,6,6,6,6,6,6,1,1,1,1,1,8,6,6,6,6,6,6,1,1,1,1,1,6,1,1,6,1,1],
    fragment_separators=[12, 24],
    fix_com=True,
    fix_orientation=True,
    fix_symmetry='c1',
    fragment_multiplicities=[2, 2, 1],
    molecular_charge=0,
    molecular_multiplicity=1,
    geom= [
        1.163399336,      1.044406770,      1.597660135,
        1.692104357,      0.579153536,      0.433772779,
        1.608380547,     -0.737147524,     -0.002284891,
        2.328106455,      1.533163731,     -0.355429529,
        2.173516954,     -1.087380024,     -1.221341466,
        2.880081467,      1.170158758,     -1.569622676,
        2.810220526,     -0.145289949,     -2.010573046,
        1.076512475,     -1.480570519,      0.574186293,
        2.377796280,      2.553136868,      0.003707150,
        2.096157042,     -2.113978980,     -1.557941805,
        3.371648061,      1.921782948,     -2.175963647,
        3.241179625,     -0.428183109,     -2.962141464,

       -1.163399336,     -1.044406770,      1.597660135,
       -1.692104357,     -0.579153536,      0.433772779,
       -2.328106455,     -1.533163731,     -0.355429529,
       -1.608380547,      0.737147524,     -0.002284891,
       -2.880081467,     -1.170158758,     -1.569622676,
       -2.173516954,      1.087380024,     -1.221341466,
       -2.810220526,      0.145289949,     -2.010573046,
       -2.377796280,     -2.553136868,      0.003707150,
       -1.076512475,      1.480570519,      0.574186293,
       -3.371648061,     -1.921782948,     -2.175963647,
       -2.096157042,      2.113978980,     -1.557941805,
       -3.241179625,      0.428183109,     -2.962141464,

        0.742897767,      0.142999176,      2.597686392,
        1.311225210,     -0.789331154,      2.548918819,
        0.980075782,      0.628437069,      3.548476252,
       -0.742897767,     -0.142999176,      2.597686392,
       -0.980075782,     -0.628437069,      3.548476252,
       -1.311225210,      0.789331154,      2.548918819])
activate(mol)       
                    
set {               
basis jun-cc-pvdz   
scf_type df
guess sad
freeze_core true
fisapt_do_plot true
}
energy('fisapt0')
--------------------------------------------------------------------------

  Memory set to  11.719 GiB by Python driver.

Scratch directory: C:\Users\Ivan\AppData\Local\Temp/

*** tstart() called on DESKTOP-D4OA462
*** at Thu Nov  9 12:54:37 2023

   => Loading Basis Set <=

    Name: JUN-CC-PVDZ
    Role: ORBITAL
    Keyword: BASIS
    atoms 1, 13                     entry O          line   232 file C:\Users\Ivan\.conda\envs\psi4\lib\share\psi4\basis\jun-cc-pvdz.gbs 
    atoms 2-7, 14-19, 25, 28        entry C          line   164 file C:\Users\Ivan\.conda\envs\psi4\lib\share\psi4\basis\jun-cc-pvdz.gbs 
    atoms 8-12, 20-24, 26-27, 29-30 entry H          line    36 file C:\Users\Ivan\.conda\envs\psi4\lib\share\psi4\basis\jun-cc-pvdz.gbs 


         ---------------------------------------------------------
                                   SCF
               by Justin Turney, Rob Parrish, Andy Simmonett
                          and Daniel G. A. Smith
                              RHF Reference
                        1 Threads,   -288 MiB Core
         ---------------------------------------------------------

  ==> Geometry <==

    Molecular point group: c1
    Full point group: C2

    Geometry (in Angstrom), charge = 0, multiplicity = 1:

       Center              X                  Y                   Z               Mass       
    ------------   -----------------  -----------------  -----------------  -----------------
         O            1.163399336000     1.044406770000     1.597660135000    15.994914619570
         C            1.692104357000     0.579153536000     0.433772779000    12.000000000000
         C            1.608380547000    -0.737147524000    -0.002284891000    12.000000000000
         C            2.328106455000     1.533163731000    -0.355429529000    12.000000000000
         C            2.173516954000    -1.087380024000    -1.221341466000    12.000000000000
         C            2.880081467000     1.170158758000    -1.569622676000    12.000000000000
         C            2.810220526000    -0.145289949000    -2.010573046000    12.000000000000
         H            1.076512475000    -1.480570519000     0.574186293000     1.007825032230
         H            2.377796280000     2.553136868000     0.003707150000     1.007825032230
         H            2.096157042000    -2.113978980000    -1.557941805000     1.007825032230
         H            3.371648061000     1.921782948000    -2.175963647000     1.007825032230
         H            3.241179625000    -0.428183109000    -2.962141464000     1.007825032230
         O           -1.163399336000    -1.044406770000     1.597660135000    15.994914619570
         C           -1.692104357000    -0.579153536000     0.433772779000    12.000000000000
         C           -2.328106455000    -1.533163731000    -0.355429529000    12.000000000000
         C           -1.608380547000     0.737147524000    -0.002284891000    12.000000000000
         C           -2.880081467000    -1.170158758000    -1.569622676000    12.000000000000
         C           -2.173516954000     1.087380024000    -1.221341466000    12.000000000000
         C           -2.810220526000     0.145289949000    -2.010573046000    12.000000000000
         H           -2.377796280000    -2.553136868000     0.003707150000     1.007825032230
         H           -1.076512475000     1.480570519000     0.574186293000     1.007825032230
         H           -3.371648061000    -1.921782948000    -2.175963647000     1.007825032230
         H           -2.096157042000     2.113978980000    -1.557941805000     1.007825032230
         H           -3.241179625000     0.428183109000    -2.962141464000     1.007825032230
         C            0.742897767000     0.142999176000     2.597686392000    12.000000000000
         H            1.311225210000    -0.789331154000     2.548918819000     1.007825032230
         H            0.980075782000     0.628437069000     3.548476252000     1.007825032230
         C           -0.742897767000    -0.142999176000     2.597686392000    12.000000000000
         H           -0.980075782000    -0.628437069000     3.548476252000     1.007825032230
         H           -1.311225210000     0.789331154000     2.548918819000     1.007825032230

  Running in c1 symmetry.

  Rotational constants: A =      0.02424  B =      0.01529  C =      0.01174 [cm^-1]
  Rotational constants: A =    726.72610  B =    458.36517  C =    351.96544 [MHz]
  Nuclear repulsion = 1067.850585770564976

  Charge       = 0
  Multiplicity = 1
  Electrons    = 114
  Nalpha       = 57
  Nbeta        = 57

  ==> Algorithm <==

  SCF Algorithm Type is DF.
  DIIS enabled.
  MOM disabled.
  Fractional occupation disabled.
  Guess Type is SAD.
  Energy threshold   = 1.00e-08
  Density threshold  = 1.00e-08
  Integral threshold = 1.00e-12

  ==> Primary Basis <==

  Basis Set: JUN-CC-PVDZ
    Blend: JUN-CC-PVDZ
    Number of shells: 170
    Number of basis functions: 358
    Number of Cartesian functions: 374
    Spherical Harmonics?: true
    Max angular momentum: 2

   => Loading Basis Set <=

    Name: (JUN-CC-PVDZ AUX)
    Role: JKFIT
    Keyword: DF_BASIS_SCF
    atoms 1, 13                     entry O          line   258 file C:\Users\Ivan\.conda\envs\psi4\lib\share\psi4\basis\jun-cc-pvdz-jkfit.gbs 
    atoms 2-7, 14-19, 25, 28        entry C          line   146 file C:\Users\Ivan\.conda\envs\psi4\lib\share\psi4\basis\jun-cc-pvdz-jkfit.gbs 
    atoms 8-12, 20-24, 26-27, 29-30 entry H          line    70 file C:\Users\Ivan\.conda\envs\psi4\lib\share\psi4\basis\jun-cc-pvdz-jkfit.gbs 

  ==> Integral Setup <==

  DFHelper Memory: AOs need 1.436 GiB; user supplied 8.789 GiB. Using in-core AOs.

  ==> MemDFJK: Density-Fitted J/K Matrices <==

    J tasked:                   Yes
    K tasked:                   Yes
    wK tasked:                   No
    OpenMP threads:               1
    Memory [MiB]:              9000
    Algorithm:                 Core
    Schwarz Cutoff:           1E-12
    Mask sparsity (%):       7.8165
    Fitting Condition:        1E-10

   => Auxiliary Basis Set <=

  Basis Set: (JUN-CC-PVDZ AUX)
    Blend: JUN-CC-PVDZ-JKFIT
    Number of shells: 558
    Number of basis functions: 1586
    Number of Cartesian functions: 1806
    Spherical Harmonics?: true
    Max angular momentum: 3

  Minimum eigenvalue in the overlap matrix is 6.6082654175E-06.
  Reciprocal condition number of the overlap matrix is 4.1658634257E-07.
    Using symmetric orthogonalization.

  ==> Pre-Iterations <==

  SCF Guess: Superposition of Atomic Densities via on-the-fly atomic UHF (no occupation information).

   -------------------------
    Irrep   Nso     Nmo    
   -------------------------
     A        358     358 
   -------------------------
    Total     358     358
   -------------------------

  ==> Iterations <==

                           Total Energy        Delta E     RMS |[F,P]|

   @DF-RHF iter SAD:  -687.66957606982669   -6.87670e+02   0.00000e+00 
   @DF-RHF iter   1:  -687.66235680890497    7.21926e-03   2.21325e-03 DIIS/ADIIS
   @DF-RHF iter   2:  -688.00038516221241   -3.38028e-01   9.91135e-04 DIIS/ADIIS
   @DF-RHF iter   3:  -688.06580176547675   -6.54166e-02   1.95868e-04 DIIS/ADIIS
   @DF-RHF iter   4:  -688.06987362464258   -4.07186e-03   6.05202e-05 DIIS
   @DF-RHF iter   5:  -688.07014036977830   -2.66745e-04   1.68317e-05 DIIS
   @DF-RHF iter   6:  -688.07016991986461   -2.95501e-05   6.00802e-06 DIIS
   @DF-RHF iter   7:  -688.07017384471760   -3.92485e-06   1.77632e-06 DIIS
   @DF-RHF iter   8:  -688.07017440575441   -5.61037e-07   6.60963e-07 DIIS
   @DF-RHF iter   9:  -688.07017448688771   -8.11333e-08   2.71962e-07 DIIS
   @DF-RHF iter  10:  -688.07017450094554   -1.40578e-08   1.03872e-07 DIIS
   @DF-RHF iter  11:  -688.07017450492322   -3.97768e-09   4.64452e-08 DIIS
   @DF-RHF iter  12:  -688.07017450580088   -8.77662e-10   1.93518e-08 DIIS
   @DF-RHF iter  13:  -688.07017450592366   -1.22782e-10   5.23297e-09 DIIS
  Energy and wave function converged.


  ==> Post-Iterations <==

    Orbital Energies [Eh]
    ---------------------

    Doubly Occupied:                                                      

       1A    -20.592788     2A    -20.592786     3A    -11.302227  
       4A    -11.302227     5A    -11.301047     6A    -11.300397  
       7A    -11.240333     8A    -11.240331     9A    -11.240264  
      10A    -11.240264    11A    -11.230891    12A    -11.230891  
      13A    -11.229650    14A    -11.229649    15A    -11.228113  
      16A    -11.228112    17A     -1.431009    18A     -1.416688  
      19A     -1.154459    20A     -1.150514    21A     -1.061231  
      22A     -1.020601    23A     -1.019425    24A     -1.013090  
      25A     -0.982663    26A     -0.893467    27A     -0.837773  
      28A     -0.832713    29A     -0.814297    30A     -0.795773  
      31A     -0.738948    32A     -0.721705    33A     -0.691551  
      34A     -0.670528    35A     -0.666169    36A     -0.662878  
      37A     -0.654629    38A     -0.620003    39A     -0.611466  
      40A     -0.600966    41A     -0.587059    42A     -0.584569  
      43A     -0.578713    44A     -0.562929    45A     -0.536440  
      46A     -0.520865    47A     -0.514892    48A     -0.513137  
      49A     -0.508161    50A     -0.485619    51A     -0.477785  
      52A     -0.473453    53A     -0.452149    54A     -0.339064  
      55A     -0.337419    56A     -0.312310    57A     -0.308417  

    Virtual:                                                              

      58A      0.057883    59A      0.061106    60A      0.066053  
      61A      0.067890    62A      0.076081    63A      0.080773  
      64A      0.085312    65A      0.087705    66A      0.099465  
      67A      0.100157    68A      0.109770    69A      0.110588  
      70A      0.111331    71A      0.113890    72A      0.120193  
      73A      0.125017    74A      0.125899    75A      0.130202  
      76A      0.134629    77A      0.141083    78A      0.142371  
      79A      0.149583    80A      0.154476    81A      0.158697  
      82A      0.169593    83A      0.170545    84A      0.174210  
      85A      0.186321    86A      0.194400    87A      0.197274  
      88A      0.206102    89A      0.209343    90A      0.209395  
      91A      0.213689    92A      0.216067    93A      0.216761  
      94A      0.222321    95A      0.225079    96A      0.228946  
      97A      0.234575    98A      0.242358    99A      0.244673  
     100A      0.250409   101A      0.256990   102A      0.264644  
     103A      0.273668   104A      0.274061   105A      0.281039  
     106A      0.281781   107A      0.282415   108A      0.286180  
     109A      0.293386   110A      0.294004   111A      0.297576  
     112A      0.302875   113A      0.305802   114A      0.307842  
     115A      0.317152   116A      0.319605   117A      0.325021  
     118A      0.342532   119A      0.351645   120A      0.352645  
     121A      0.359968   122A      0.370313   123A      0.370792  
     124A      0.380985   125A      0.383214   126A      0.387958  
     127A      0.396279   128A      0.400411   129A      0.401518  
     130A      0.413229   131A      0.424389   132A      0.425059  
     133A      0.429690   134A      0.431038   135A      0.439509  
     136A      0.445100   137A      0.448470   138A      0.465430  
     139A      0.470258   140A      0.473104   141A      0.479399  
     142A      0.493986   143A      0.501202   144A      0.510131  
     145A      0.511115   146A      0.513440   147A      0.542996  
     148A      0.550886   149A      0.555913   150A      0.564694  
     151A      0.583553   152A      0.604925   153A      0.617455  
     154A      0.634175   155A      0.733339   156A      0.752940  
     157A      0.767266   158A      0.773959   159A      0.778846  
     160A      0.799916   161A      0.803287   162A      0.832711  
     163A      0.836904   164A      0.839682   165A      0.848528  
     166A      0.858141   167A      0.864644   168A      0.874895  
     169A      0.884058   170A      0.887044   171A      0.891160  
     172A      0.898308   173A      0.908446   174A      0.916266  
     175A      0.928243   176A      0.931590   177A      0.940404  
     178A      0.948323   179A      0.951499   180A      0.958516  
     181A      0.962608   182A      0.969159   183A      0.971428  
     184A      0.979211   185A      0.980301   186A      0.983085  
     187A      0.985540   188A      0.991039   189A      0.991601  
     190A      1.007851   191A      1.015850   192A      1.030837  
     193A      1.033614   194A      1.035800   195A      1.039999  
     196A      1.042504   197A      1.059927   198A      1.061288  
     199A      1.068233   200A      1.076111   201A      1.095762  
     202A      1.111486   203A      1.126103   204A      1.152337  
     205A      1.164928   206A      1.168618   207A      1.169074  
     208A      1.189136   209A      1.192769   210A      1.204895  
     211A      1.219569   212A      1.236131   213A      1.246018  
     214A      1.255760   215A      1.256915   216A      1.260054  
     217A      1.272480   218A      1.272564   219A      1.277776  
     220A      1.285219   221A      1.301056   222A      1.302430  
     223A      1.313779   224A      1.325868   225A      1.326532  
     226A      1.346758   227A      1.358819   228A      1.370890  
     229A      1.373923   230A      1.378623   231A      1.399647  
     232A      1.419324   233A      1.419461   234A      1.456262  
     235A      1.504710   236A      1.513439   237A      1.528443  
     238A      1.533259   239A      1.545364   240A      1.556108  
     241A      1.575599   242A      1.584064   243A      1.690411  
     244A      1.696695   245A      1.702185   246A      1.717523  
     247A      1.746284   248A      1.754578   249A      1.757584  
     250A      1.777526   251A      1.777888   252A      1.781866  
     253A      1.792798   254A      1.827256   255A      1.837478  
     256A      1.840047   257A      1.856529   258A      1.898027  
     259A      1.901269   260A      1.915872   261A      1.929159  
     262A      1.929212   263A      1.940615   264A      1.941688  
     265A      1.954515   266A      1.957710   267A      1.959219  
     268A      1.966851   269A      1.976419   270A      1.978102  
     271A      1.983810   272A      1.993299   273A      1.997758  
     274A      2.002979   275A      2.012967   276A      2.024856  
     277A      2.028452   278A      2.050326   279A      2.065593  
     280A      2.067113   281A      2.069494   282A      2.082658  
     283A      2.085455   284A      2.101722   285A      2.105172  
     286A      2.114980   287A      2.125431   288A      2.139035  
     289A      2.153517   290A      2.175603   291A      2.187359  
     292A      2.188166   293A      2.193302   294A      2.193652  
     295A      2.205543   296A      2.208823   297A      2.212071  
     298A      2.217797   299A      2.233322   300A      2.235320  
     301A      2.259549   302A      2.281037   303A      2.290125  
     304A      2.292963   305A      2.307790   306A      2.345901  
     307A      2.369728   308A      2.397122   309A      2.428023  
     310A      2.428250   311A      2.438231   312A      2.463898  
     313A      2.468652   314A      2.502821   315A      2.514478  
     316A      2.520922   317A      2.530911   318A      2.548681  
     319A      2.577867   320A      2.599462   321A      2.656733  
     322A      2.663253   323A      2.749082   324A      2.780053  
     325A      2.788367   326A      2.799526   327A      2.802839  
     328A      2.821193   329A      2.829907   330A      2.839962  
     331A      2.851827   332A      2.852988   333A      2.882953  
     334A      2.884195   335A      2.953825   336A      2.980424  
     337A      3.033911   338A      3.038018   339A      3.059240  
     340A      3.063130   341A      3.109042   342A      3.109759  
     343A      3.189258   344A      3.202362   345A      3.234967  
     346A      3.297279   347A      3.305650   348A      3.319008  
     349A      3.397496   350A      3.480562   351A      3.524145  
     352A      3.568642   353A      3.743411   354A      3.757584  
     355A      3.874318   356A      3.898589   357A      4.125007  
     358A      4.136511  

    Final Occupation by Irrep:
              A 
    DOCC [    57 ]
    NA   [    57 ]
    NB   [    57 ]

  @DF-RHF Final Energy:  -688.07017450592366

   => Energetics <=

    Nuclear Repulsion Energy =           1067.8505857705649760
    One-Electron Energy =               -3056.0705238512146025
    Two-Electron Energy =                1300.1497635747259665
    Total Energy =                       -688.0701745059236600

Computation Completed


Properties will be evaluated at   0.000000,   0.000000,   0.000000 [a0]

Properties computed using the SCF density matrix


 Multipole Moments:

 ------------------------------------------------------------------------------------
     Multipole            Electronic (a.u.)      Nuclear  (a.u.)        Total (a.u.)
 ------------------------------------------------------------------------------------

 L = 1.  Multiply by 2.5417464519 to convert [e a0] to [Debye]
 Dipole X            :         -0.0000000            0.0000000           -0.0000000
 Dipole Y            :          0.0000000           -0.0000000            0.0000000
 Dipole Z            :          0.3858970           -0.0235533            0.3623437
 Magnitude           :                                                    0.3623437

 ------------------------------------------------------------------------------------

*** tstop() called on DESKTOP-D4OA462 at Thu Nov  9 12:55:30 2023
Module time:
	user time   =        nan seconds =        nan minutes
	system time =        nan seconds =        nan minutes
	total time  =         53 seconds =       0.88 minutes
Total time:
	user time   =        nan seconds =        nan minutes
	system time =        nan seconds =        nan minutes
	total time  =         53 seconds =       0.88 minutes
  Constructing Basis Sets for FISAPT...

   => Loading Basis Set <=

    Name: (JUN-CC-PVDZ AUX)
    Role: JKFIT
    Keyword: DF_BASIS_SCF
    atoms 1, 13                     entry O          line   258 file C:\Users\Ivan\.conda\envs\psi4\lib\share\psi4\basis\jun-cc-pvdz-jkfit.gbs 
    atoms 2-7, 14-19, 25, 28        entry C          line   146 file C:\Users\Ivan\.conda\envs\psi4\lib\share\psi4\basis\jun-cc-pvdz-jkfit.gbs 
    atoms 8-12, 20-24, 26-27, 29-30 entry H          line    70 file C:\Users\Ivan\.conda\envs\psi4\lib\share\psi4\basis\jun-cc-pvdz-jkfit.gbs 

   => Loading Basis Set <=

    Name: (JUN-CC-PVDZ AUX)
    Role: RIFIT
    Keyword: DF_BASIS_SAPT
    atoms 1, 13                     entry O          line   188 file C:\Users\Ivan\.conda\envs\psi4\lib\share\psi4\basis\jun-cc-pvdz-ri.gbs 
    atoms 2-7, 14-19, 25, 28        entry C          line   100 file C:\Users\Ivan\.conda\envs\psi4\lib\share\psi4\basis\jun-cc-pvdz-ri.gbs 
    atoms 8-12, 20-24, 26-27, 29-30 entry H          line    30 file C:\Users\Ivan\.conda\envs\psi4\lib\share\psi4\basis\jun-cc-pvdz-ri.gbs 

   => Loading Basis Set <=

    Name: CC-PVTZ-MINAO
    Role: ORBITAL
    Keyword: BASIS
    atoms 1, 13                     entry O          line   179 file C:\Users\Ivan\.conda\envs\psi4\lib\share\psi4\basis\cc-pvtz-minao.gbs 
    atoms 2-7, 14-19, 25, 28        entry C          line   119 file C:\Users\Ivan\.conda\envs\psi4\lib\share\psi4\basis\cc-pvtz-minao.gbs 
    atoms 8-12, 20-24, 26-27, 29-30 entry H          line    20 file C:\Users\Ivan\.conda\envs\psi4\lib\share\psi4\basis\cc-pvtz-minao.gbs 

	 --------------------------------------------
	                    FISAPT0                  
	                  Rob Parrish                
	 --------------------------------------------

    Do F-SAPT =         Yes
    Do Plot   =         Yes
    Memory    =      10.547 [GiB]

  ==> Localization (IBO) <==

  ==> IBO Localizer 2 <==

    MinAO Basis = CC-PVTZ-MINAO
    Use Ghosts  =       FALSE
    Use Stars   =       FALSE
    Condition   =   1.000E-07
    Power       =           4
    Convergence =   1.000E-12
    Maxiter     =         200

    @IBO Iter:                   Metric       Gradient
    @IBO    1:   1.1485701079420629E+00   2.215019E+00
    @IBO    2:   2.1382377555428667E+00   1.548845E+00
    @IBO    3:   2.1980721106518462E+00   1.005389E+00
    @IBO    4:   2.2079608611753097E+00   1.302047E-01
    @IBO    5:   2.2080879811697960E+00   2.168908E-03
    @IBO    6:   2.2080880237469684E+00   1.230170E-04
    @IBO    7:   2.2080880243283918E+00   2.632227E-05
    @IBO    8:   2.2080880243575356E+00   5.917299E-06
    @IBO    9:   2.2080880243590224E+00   1.321356E-06
    @IBO   10:   2.2080880243590966E+00   2.928131E-07
    @IBO   11:   2.2080880243591006E+00   6.453264E-08
    @IBO   12:   2.2080880243591006E+00   1.417410E-08
    @IBO   13:   2.2080880243591001E+00   3.107449E-09
    @IBO   14:   2.2080880243591006E+00   6.806888E-10
    @IBO   15:   2.2080880243591006E+00   1.490776E-10
    @IBO   16:   2.2080880243591006E+00   3.265638E-11
    @IBO   17:   2.2080880243591001E+00   7.156783E-12
    @IBO   18:   2.2080880243591006E+00   1.569337E-12
    @IBO   19:   2.2080880243591001E+00   3.442759E-13

    IBO Localizer 2 converged.

  ==> Partitioning <==

   => Atomic Partitioning <= 

    Monomer A:  12 atoms
    Monomer B:  12 atoms
    Monomer C:   6 atoms

   => Link Bond Identification <=

    Link Bond Selection = AUTOMATIC

    Charge Completeness = 0.800

    Total Link Bonds = 2

    --------------------------
    N     Orb Type Aind1 Aind2
    --------------------------
    1      41   AC     1    25
    2      56   BC    13    28
    --------------------------

   => Link Bond Assignment <=

    Link Bond Assignment      = C

   => Partition Summary <=

    Monomer A:  0 charge,  48 protons,  48 electrons,  24 docc
    Monomer B:  0 charge,  48 protons,  48 electrons,  24 docc
    Monomer C:  0 charge,  18 protons,  18 electrons,   9 docc

  ==> Overlap Integrals <==

  ==> Kinetic Integrals <==

  ==> Nuclear Integrals <==

    Nuclear Repulsion Tot:   1.0678505857705661E+03 [Eh]

  ==> Coulomb Integrals <==

  DFHelper Memory: AOs need 1.436 GiB; user supplied 10.544 GiB. Using in-core AOs.

  ==> MemDFJK: Density-Fitted J/K Matrices <==

    J tasked:                   Yes
    K tasked:                   Yes
    wK tasked:                   No
    OpenMP threads:               1
    Memory [MiB]:             10800
    Algorithm:                 Core
    Schwarz Cutoff:           1E-12
    Mask sparsity (%):       7.8165
    Fitting Condition:        1E-10

   => Auxiliary Basis Set <=

  Basis Set: (JUN-CC-PVDZ AUX)
    Blend: JUN-CC-PVDZ-JKFIT
    Number of shells: 558
    Number of basis functions: 1586
    Number of Cartesian functions: 1806
    Spherical Harmonics?: true
    Max angular momentum: 3

  ==> Relaxed SCF Equations <==

  ==> SCF A: <==

    Maxiter =         100
    E Tol   =   1.000E-08
    D Tol   =   1.000E-08

    Max DIIS Vectors = 10

    Iter   N:                        E          dE         |D|
    Iter   1:  -2.9730675701356819E+02  -2.973E+02   7.127E-04 
    Iter   2:  -2.9732183540588159E+02  -1.508E-02   5.275E-05 DIIS
    Iter   3:  -2.9732218427794368E+02  -3.489E-04   1.622E-05 DIIS
    Iter   4:  -2.9732221380373778E+02  -2.953E-05   9.092E-06 DIIS
    Iter   5:  -2.9732222207491782E+02  -8.271E-06   2.005E-06 DIIS
    Iter   6:  -2.9732222324869008E+02  -1.174E-06   1.001E-06 DIIS
    Iter   7:  -2.9732222353781282E+02  -2.891E-07   4.836E-07 DIIS
    Iter   8:  -2.9732222362234660E+02  -8.453E-08   1.425E-07 DIIS
    Iter   9:  -2.9732222362865627E+02  -6.310E-09   4.963E-08 DIIS
    Iter  10:  -2.9732222362910665E+02  -4.504E-10   1.672E-08 DIIS
    Iter  11:  -2.9732222362914433E+02  -3.769E-11   5.375E-09 DIIS

    FISAPTSCF Converged.

    Final SCF Energy:  -2.9732222362914433E+02 [Eh]

   => Occupied Orbital Energies <=

       1  -20.582875     2  -11.302936     3  -11.243713  
       4  -11.241642     5  -11.234810     6  -11.228998  
       7  -11.228757     8   -1.227364     9   -1.126149  
      10   -1.020594    11   -0.967894    12   -0.832733  
      13   -0.790484    14   -0.689130    15   -0.650407  
      16   -0.618990    17   -0.589339    18   -0.586426  
      19   -0.567349    20   -0.515210    21   -0.493126  
      22   -0.479501    23   -0.340427    24   -0.312054  

   => Virtual Orbital Energies <=

      25    0.033705    26    0.053547    27    0.062013  
      28    0.062794    29    0.070713    30    0.078776  
      31    0.079847    32    0.085188    33    0.095056  
      34    0.098617    35    0.100924    36    0.107239  
      37    0.110718    38    0.113254    39    0.116485  
      40    0.119641    41    0.125799    42    0.131928  
      43    0.135782    44    0.139671    45    0.142103  
      46    0.149647    47    0.158140    48    0.161923  
      49    0.166847    50    0.170757    51    0.175414  
      52    0.180299    53    0.185447    54    0.192286  
      55    0.195611    56    0.200557    57    0.204203  
      58    0.210540    59    0.213273    60    0.216155  
      61    0.218540    62    0.222023    63    0.224977  
      64    0.228308    65    0.236002    66    0.240576  
      67    0.244010    68    0.247931    69    0.249364  
      70    0.259594    71    0.263823    72    0.268892  
      73    0.274439    74    0.279341    75    0.280404  
      76    0.288297    77    0.290046    78    0.295092  
      79    0.297689    80    0.303974    81    0.312286  
      82    0.321085    83    0.322360    84    0.335199  
      85    0.349305    86    0.352652    87    0.369779  
      88    0.374872    89    0.375454    90    0.388267  
      91    0.389579    92    0.395197    93    0.406041  
      94    0.424081    95    0.428659    96    0.432716  
      97    0.436630    98    0.442103    99    0.451514  
     100    0.454516   101    0.457449   102    0.463353  
     103    0.473620   104    0.481964   105    0.486679  
     106    0.491380   107    0.496906   108    0.501232  
     109    0.514556   110    0.516558   111    0.532006  
     112    0.533852   113    0.553845   114    0.556698  
     115    0.565590   116    0.567928   117    0.582962  
     118    0.593319   119    0.599687   120    0.624432  
     121    0.627812   122    0.643090   123    0.660171  
     124    0.668688   125    0.685233   126    0.704437  
     127    0.736964   128    0.753399   129    0.763727  
     130    0.771240   131    0.778356   132    0.789228  
     133    0.801510   134    0.810816   135    0.833668  
     136    0.839816   137    0.868497   138    0.877100  
     139    0.884468   140    0.897213   141    0.909565  
     142    0.924998   143    0.932471   144    0.936460  
     145    0.943286   146    0.954930   147    0.957382  
     148    0.963908   149    0.970851   150    0.978687  
     151    0.980239   152    0.987279   153    0.990705  
     154    1.002089   155    1.007927   156    1.015575  
     157    1.029251   158    1.037036   159    1.044257  
     160    1.054118   161    1.060229   162    1.076574  
     163    1.101581   164    1.115831   165    1.129570  
     166    1.149956   167    1.158412   168    1.173777  
     169    1.195107   170    1.216079   171    1.223123  
     172    1.232818   173    1.248468   174    1.257903  
     175    1.270026   176    1.279490   177    1.292534  
     178    1.302028   179    1.320523   180    1.335497  
     181    1.361878   182    1.372724   183    1.387715  
     184    1.405425   185    1.413208   186    1.489937  
     187    1.513237   188    1.535670   189    1.537316  
     190    1.580109   191    1.635258   192    1.663049  
     193    1.697278   194    1.706487   195    1.712765  
     196    1.726822   197    1.741369   198    1.751787  
     199    1.769314   200    1.769661   201    1.783079  
     202    1.785390   203    1.802974   204    1.813031  
     205    1.821395   206    1.831571   207    1.843732  
     208    1.862155   209    1.881647   210    1.885489  
     211    1.890962   212    1.922257   213    1.928681  
     214    1.932535   215    1.938691   216    1.950037  
     217    1.955473   218    1.958257   219    1.962714  
     220    1.980962   221    1.996936   222    1.998838  
     223    2.011334   224    2.017358   225    2.019075  
     226    2.023360   227    2.034552   228    2.046515  
     229    2.051960   230    2.060321   231    2.067667  
     232    2.085421   233    2.090870   234    2.091164  
     235    2.103816   236    2.115736   237    2.125407  
     238    2.136213   239    2.145521   240    2.149440  
     241    2.161154   242    2.163785   243    2.188453  
     244    2.189749   245    2.201943   246    2.211399  
     247    2.217385   248    2.231405   249    2.236729  
     250    2.250785   251    2.267866   252    2.273685  
     253    2.280847   254    2.293844   255    2.306392  
     256    2.307613   257    2.312772   258    2.328100  
     259    2.344142   260    2.366897   261    2.382338  
     262    2.399010   263    2.414273   264    2.428266  
     265    2.444956   266    2.465290   267    2.472372  
     268    2.480033   269    2.504318   270    2.512628  
     271    2.523076   272    2.531518   273    2.539086  
     274    2.555643   275    2.575072   276    2.585844  
     277    2.615986   278    2.652584   279    2.658577  
     280    2.688457   281    2.719000   282    2.735972  
     283    2.779923   284    2.787459   285    2.806316  
     286    2.820873   287    2.826600   288    2.834385  
     289    2.844327   290    2.850613   291    2.872214  
     292    2.882620   293    2.896352   294    2.928021  
     295    2.950415   296    2.978358   297    3.030675  
     298    3.056177   299    3.058382   300    3.081004  
     301    3.104736   302    3.133438   303    3.135123  
     304    3.158257   305    3.171676   306    3.198555  
     307    3.239711   308    3.269495   309    3.292746  
     310    3.307048   311    3.328581   312    3.418486  
     313    3.443998   314    3.487309   315    3.544872  
     316    3.568176   317    3.588363   318    3.670646  
     319    3.723787   320    3.758493   321    3.865691  
     322    3.902417   323    4.130580   324    4.167625  
     325    4.286499   326    4.320730   327    4.334354  
     328    4.362136   329    4.455728   330    4.524230  
     331    4.576260   332    4.778938   333    4.920086  
     334    5.044985   335    5.221114   336    5.394014  
     337    5.419828   338    5.474005   339    5.490160  
     340    5.567863   341    5.709181   342    6.020180  
     343   17.987377   344   18.134455   345   18.146018  
     346   18.597691   347   18.625257   348   19.280947  
     349   26.464876  

  ==> SCF B: <==

    Maxiter =         100
    E Tol   =   1.000E-08
    D Tol   =   1.000E-08

    Max DIIS Vectors = 10

    Iter   N:                        E          dE         |D|
    Iter   1:  -2.9730675701189182E+02  -2.973E+02   7.127E-04 
    Iter   2:  -2.9732183540421710E+02  -1.508E-02   5.275E-05 DIIS
    Iter   3:  -2.9732218427627834E+02  -3.489E-04   1.622E-05 DIIS
    Iter   4:  -2.9732221380207358E+02  -2.953E-05   9.092E-06 DIIS
    Iter   5:  -2.9732222207325401E+02  -8.271E-06   2.005E-06 DIIS
    Iter   6:  -2.9732222324702570E+02  -1.174E-06   1.001E-06 DIIS
    Iter   7:  -2.9732222353614850E+02  -2.891E-07   4.836E-07 DIIS
    Iter   8:  -2.9732222362068205E+02  -8.453E-08   1.425E-07 DIIS
    Iter   9:  -2.9732222362699116E+02  -6.309E-09   4.963E-08 DIIS
    Iter  10:  -2.9732222362744261E+02  -4.515E-10   1.672E-08 DIIS
    Iter  11:  -2.9732222362748030E+02  -3.769E-11   5.375E-09 DIIS

    FISAPTSCF Converged.

    Final SCF Energy:  -2.9732222362748030E+02 [Eh]

   => Occupied Orbital Energies <=

       1  -20.582875     2  -11.302936     3  -11.243713  
       4  -11.241642     5  -11.234810     6  -11.228998  
       7  -11.228757     8   -1.227364     9   -1.126149  
      10   -1.020594    11   -0.967894    12   -0.832733  
      13   -0.790484    14   -0.689130    15   -0.650407  
      16   -0.618990    17   -0.589339    18   -0.586426  
      19   -0.567349    20   -0.515210    21   -0.493126  
      22   -0.479501    23   -0.340427    24   -0.312054  

   => Virtual Orbital Energies <=

      25    0.033705    26    0.053547    27    0.062013  
      28    0.062794    29    0.070713    30    0.078776  
      31    0.079847    32    0.085188    33    0.095056  
      34    0.098617    35    0.100924    36    0.107239  
      37    0.110718    38    0.113254    39    0.116485  
      40    0.119641    41    0.125799    42    0.131928  
      43    0.135782    44    0.139671    45    0.142103  
      46    0.149647    47    0.158140    48    0.161923  
      49    0.166847    50    0.170757    51    0.175414  
      52    0.180299    53    0.185447    54    0.192286  
      55    0.195611    56    0.200557    57    0.204203  
      58    0.210540    59    0.213273    60    0.216155  
      61    0.218540    62    0.222023    63    0.224977  
      64    0.228308    65    0.236002    66    0.240576  
      67    0.244010    68    0.247931    69    0.249364  
      70    0.259594    71    0.263823    72    0.268892  
      73    0.274439    74    0.279341    75    0.280404  
      76    0.288297    77    0.290046    78    0.295092  
      79    0.297689    80    0.303974    81    0.312286  
      82    0.321085    83    0.322360    84    0.335199  
      85    0.349305    86    0.352652    87    0.369779  
      88    0.374872    89    0.375454    90    0.388267  
      91    0.389579    92    0.395197    93    0.406041  
      94    0.424081    95    0.428659    96    0.432716  
      97    0.436630    98    0.442103    99    0.451514  
     100    0.454516   101    0.457449   102    0.463353  
     103    0.473620   104    0.481964   105    0.486679  
     106    0.491380   107    0.496906   108    0.501232  
     109    0.514556   110    0.516558   111    0.532006  
     112    0.533852   113    0.553845   114    0.556698  
     115    0.565590   116    0.567928   117    0.582962  
     118    0.593319   119    0.599687   120    0.624432  
     121    0.627812   122    0.643090   123    0.660171  
     124    0.668688   125    0.685233   126    0.704437  
     127    0.736964   128    0.753399   129    0.763727  
     130    0.771240   131    0.778356   132    0.789228  
     133    0.801510   134    0.810816   135    0.833668  
     136    0.839816   137    0.868497   138    0.877100  
     139    0.884468   140    0.897213   141    0.909565  
     142    0.924998   143    0.932471   144    0.936460  
     145    0.943286   146    0.954930   147    0.957382  
     148    0.963908   149    0.970851   150    0.978687  
     151    0.980239   152    0.987279   153    0.990705  
     154    1.002089   155    1.007927   156    1.015575  
     157    1.029251   158    1.037036   159    1.044257  
     160    1.054118   161    1.060229   162    1.076574  
     163    1.101581   164    1.115831   165    1.129570  
     166    1.149956   167    1.158412   168    1.173777  
     169    1.195107   170    1.216079   171    1.223123  
     172    1.232818   173    1.248468   174    1.257903  
     175    1.270026   176    1.279490   177    1.292534  
     178    1.302028   179    1.320523   180    1.335497  
     181    1.361878   182    1.372724   183    1.387715  
     184    1.405425   185    1.413208   186    1.489937  
     187    1.513237   188    1.535670   189    1.537316  
     190    1.580109   191    1.635258   192    1.663049  
     193    1.697278   194    1.706487   195    1.712765  
     196    1.726822   197    1.741369   198    1.751787  
     199    1.769314   200    1.769661   201    1.783079  
     202    1.785390   203    1.802974   204    1.813031  
     205    1.821395   206    1.831571   207    1.843732  
     208    1.862155   209    1.881647   210    1.885489  
     211    1.890962   212    1.922257   213    1.928681  
     214    1.932535   215    1.938691   216    1.950037  
     217    1.955473   218    1.958257   219    1.962714  
     220    1.980962   221    1.996936   222    1.998838  
     223    2.011334   224    2.017358   225    2.019075  
     226    2.023360   227    2.034552   228    2.046515  
     229    2.051960   230    2.060321   231    2.067667  
     232    2.085421   233    2.090870   234    2.091164  
     235    2.103816   236    2.115736   237    2.125407  
     238    2.136213   239    2.145521   240    2.149440  
     241    2.161154   242    2.163785   243    2.188453  
     244    2.189749   245    2.201943   246    2.211399  
     247    2.217385   248    2.231405   249    2.236729  
     250    2.250785   251    2.267866   252    2.273685  
     253    2.280847   254    2.293844   255    2.306392  
     256    2.307613   257    2.312772   258    2.328100  
     259    2.344142   260    2.366897   261    2.382338  
     262    2.399010   263    2.414273   264    2.428266  
     265    2.444956   266    2.465290   267    2.472372  
     268    2.480033   269    2.504318   270    2.512628  
     271    2.523076   272    2.531518   273    2.539086  
     274    2.555643   275    2.575072   276    2.585844  
     277    2.615986   278    2.652584   279    2.658577  
     280    2.688457   281    2.719000   282    2.735972  
     283    2.779923   284    2.787459   285    2.806316  
     286    2.820873   287    2.826600   288    2.834385  
     289    2.844327   290    2.850613   291    2.872214  
     292    2.882620   293    2.896352   294    2.928021  
     295    2.950415   296    2.978358   297    3.030675  
     298    3.056177   299    3.058382   300    3.081004  
     301    3.104736   302    3.133438   303    3.135123  
     304    3.158257   305    3.171676   306    3.198555  
     307    3.239711   308    3.269495   309    3.292746  
     310    3.307048   311    3.328581   312    3.418486  
     313    3.443998   314    3.487309   315    3.544872  
     316    3.568176   317    3.588363   318    3.670646  
     319    3.723787   320    3.758493   321    3.865691  
     322    3.902417   323    4.130580   324    4.167625  
     325    4.286499   326    4.320730   327    4.334354  
     328    4.362136   329    4.455728   330    4.524230  
     331    4.576260   332    4.778938   333    4.920086  
     334    5.044985   335    5.221114   336    5.394014  
     337    5.419828   338    5.474005   339    5.490160  
     340    5.567863   341    5.709181   342    6.020180  
     343   17.987377   344   18.134455   345   18.146018  
     346   18.597691   347   18.625257   348   19.280947  
     349   26.464876  

  ==> Frozen Core <==


    ------------------
    Range      A     B
    ------------------
    nbf      358   358
    nmo      349   349
    nocc      24    24
    nvir     325   325
    nfocc      7     7
    naocc     17    17
    navir    325   325
    nfvir      0     0
    ------------------

  ==> Unification <==

  ==> dHF <==

    E ABC(HF) =  -6.8807017450592366E+02 [Eh]
    E AC(0)   =  -3.8089335380341959E+02 [Eh]
    E BC(0)   =  -3.8089335380039131E+02 [Eh]
    E A(0)    =  -2.8266979243335561E+02 [Eh]
    E B(0)    =  -2.8266979243127628E+02 [Eh]
    E AC(HF)  =  -3.8087788718784270E+02 [Eh]
    E BC(HF)  =  -3.8087788718480294E+02 [Eh]
    E AB(HF)  =  -5.6531283566899538E+02 [Eh]
    E A(HF)   =  -2.8264508621546247E+02 [Eh]
    E B(HF)   =  -2.8264508621332959E+02 [Eh]
    E C       =  -7.3708263106917315E+01 [Eh]
    E HF      =   8.2699909699215368E-03 [Eh]

  ==> Electrostatics <==

    Elst10,r            =    -0.001116743226 [Eh]

  ==> Exchange <==

    Exch10(S^2)         =     0.011911267357 [Eh]
    Exch10              =     0.011955821902 [Eh]

  ==> Induction <==

    Ind20,u (A<-B)      =    -0.002522719558 [Eh]
    Ind20,u (B<-A)      =    -0.002522719562 [Eh]
    Ind20,u             =    -0.005045439120 [Eh]
    Exch-Ind20,u (A<-B) =     0.001843991342 [Eh]
    Exch-Ind20,u (B<-A) =     0.001843991343 [Eh]
    Exch-Ind20,u        =     0.003687982684 [Eh]

  ==> CPHF Iterations <==

    Maxiter     =         100
    Convergence =   1.000E-08

    -----------------------------------------
    Iter   Monomer A    Monomer B    Time [s]
    -----------------------------------------
    1      1.947E-01    1.947E-01           3
    2      7.270E-02    7.270E-02           5
    3      1.714E-02    1.714E-02           8
    4      7.505E-03    7.505E-03          11
    5      3.445E-03    3.445E-03          13
    6      1.216E-03    1.216E-03          16
    7      4.638E-04    4.638E-04          18
    8      1.318E-04    1.318E-04          21
    9      4.108E-05    4.108E-05          23
    10     1.417E-05    1.417E-05          26
    11     3.258E-06    3.258E-06          28
    12     9.837E-07    9.837E-07          31
    13     2.710E-07    2.710E-07          33
    14     7.097E-08    7.097E-08          36
    15     2.362E-08    2.362E-08          38
    16     6.398E-09*   6.398E-09*         41
    -----------------------------------------

    Ind20,r (A<-B)      =    -0.003093005727 [Eh]
    Ind20,r (B<-A)      =    -0.003093005732 [Eh]
    Ind20,r             =    -0.006186011458 [Eh]
    Exch-Ind20,r (A<-B) =     0.002326486787 [Eh]
    Exch-Ind20,r (B<-A) =     0.002326486789 [Eh]
    Exch-Ind20,r        =     0.004652973576 [Eh]

  ==> F-SAPT Localization (IBO) <==

  Local Orbitals for Monomer A:

  ==> IBO Localizer 2 <==

    MinAO Basis = CC-PVTZ-MINAO
    Use Ghosts  =       FALSE
    Use Stars   =       FALSE
    Condition   =   1.000E-07
    Power       =           4
    Convergence =   1.000E-12
    Maxiter     =        1000

    @IBO Iter:                   Metric       Gradient
    @IBO    1:   1.6131110819719801E+00   1.617176E+00
    @IBO    2:   1.7403685699425460E+00   7.630611E-01
    @IBO    3:   1.7862617011708262E+00   5.345713E-01
    @IBO    4:   1.7943466549662512E+00   4.814784E-02
    @IBO    5:   1.7944043064040773E+00   8.793343E-04
    @IBO    6:   1.7944043354474952E+00   8.368694E-05
    @IBO    7:   1.7944043357741262E+00   1.158605E-05
    @IBO    8:   1.7944043357810755E+00   1.785285E-06
    @IBO    9:   1.7944043357812556E+00   3.016895E-07
    @IBO   10:   1.7944043357812609E+00   5.482948E-08
    @IBO   11:   1.7944043357812614E+00   1.049525E-08
    @IBO   12:   1.7944043357812614E+00   2.083443E-09
    @IBO   13:   1.7944043357812616E+00   4.246192E-10
    @IBO   14:   1.7944043357812614E+00   8.821768E-11
    @IBO   15:   1.7944043357812611E+00   1.858121E-11
    @IBO   16:   1.7944043357812614E+00   3.951084E-12
    @IBO   17:   1.7944043357812611E+00   8.454905E-13

    IBO Localizer 2 converged.

  Local Orbitals for Monomer B:

  ==> IBO Localizer 2 <==

    MinAO Basis = CC-PVTZ-MINAO
    Use Ghosts  =       FALSE
    Use Stars   =       FALSE
    Condition   =   1.000E-07
    Power       =           4
    Convergence =   1.000E-12
    Maxiter     =        1000

    @IBO Iter:                   Metric       Gradient
    @IBO    1:   1.6131110825248036E+00   1.617176E+00
    @IBO    2:   1.7403685698973765E+00   7.630611E-01
    @IBO    3:   1.7862617011646464E+00   5.345713E-01
    @IBO    4:   1.7943466549651710E+00   4.814784E-02
    @IBO    5:   1.7944043064034298E+00   8.793343E-04
    @IBO    6:   1.7944043354468482E+00   8.368694E-05
    @IBO    7:   1.7944043357734791E+00   1.158605E-05
    @IBO    8:   1.7944043357804285E+00   1.785285E-06
    @IBO    9:   1.7944043357806083E+00   3.016896E-07
    @IBO   10:   1.7944043357806136E+00   5.482948E-08
    @IBO   11:   1.7944043357806141E+00   1.049525E-08
    @IBO   12:   1.7944043357806141E+00   2.083443E-09
    @IBO   13:   1.7944043357806141E+00   4.246192E-10
    @IBO   14:   1.7944043357806143E+00   8.821771E-11
    @IBO   15:   1.7944043357806136E+00   1.858120E-11
    @IBO   16:   1.7944043357806136E+00   3.951076E-12
    @IBO   17:   1.7944043357806139E+00   8.454944E-13

    IBO Localizer 2 converged.

  ==> F-SAPT Electrostatics <==

  DFHelper Memory: AOs need 1.554 GiB; user supplied 10.547 GiB. Using in-core AOs.

  ==> DFHelper <==
    NBF:                             358
    NAux:                           1586
    Schwarz Cutoff:                1E-12
    Mask sparsity (%):                 8
    DFH Avail. Memory [GiB]:      10.547
    OpenMP threads:                    1
    Algorithm:                DIRECT_iaQ
    AO Core:                        True
    MO Core:                       False
    Hold Metric:                   False
    Metric Power:                 -0.500
    Fitting Condition:             1E-12
    Q Shell Max:                       7


    Elst10,r            =    -0.001116743188 [Eh]

  ==> F-SAPT Exchange <==

    Exch10(S^2)         =     0.011911267357 [Eh]

    Scaling F-SAPT Exch10(S^2) by   1.004E+00 to match Exch10

  ==> F-SAPT Induction <==

    Ind20,u (A<-B)      =    -0.002522719557 [Eh]
    Ind20,u (B<-A)      =    -0.002522719560 [Eh]
    Ind20,u             =    -0.005045439117 [Eh]
    Exch-Ind20,u (A<-B) =     0.001843991341 [Eh]
    Exch-Ind20,u (B<-A) =     0.001843991343 [Eh]
    Exch-Ind20,u        =     0.003687982684 [Eh]

    Scaling for delta HF        =   1.676E+00
    Scaling for response (A<-B) =   1.129E+00
    Scaling for response (B<-A) =   1.129E+00
    Scaling for total (A<-B)    =   1.893E+00
    Scaling for total (B<-A)    =   1.893E+00

  ==> F-SAPT Dispersion <==

  DFHelper Memory: AOs need 1.213 GiB; user supplied 10.541 GiB. Using in-core AOs.

  ==> DFHelper <==
    NBF:                             358
    NAux:                           1236
    Schwarz Cutoff:                1E-12
    Mask sparsity (%):                 8
    DFH Avail. Memory [GiB]:      10.541
    OpenMP threads:                    1
    Algorithm:                DIRECT_iaQ
    AO Core:                        True
    MO Core:                       False
    Hold Metric:                   False
    Metric Power:                 -0.500
    Fitting Condition:             1E-12
    Q Shell Max:                       7


    1415577600 doubles - 1587685 overhead leaves 1413989915 for dispersion
    Processing a single (r,s) pair requires 168096 doubles
    325 values of r processed in 1 blocks of 325
    325 values of s processed in 1 blocks of 325

    Disp20              =    -0.010491137264 [Eh]
    Exch-Disp20         =     0.001286756140 [Eh]

  ==> F-SAPT Output <==

    F-SAPT Data Filepath = fsapt/

  ==> Scalar Field Plots <==

    F-SAPT Plot Filepath = plot/

  ==> CubicScalarGrid <==

    Filepath     = plot/
    Total Points =           973350
    XYZ Blocking =               10
    X Points     =              105
    Y Points     =               90
    Z Points     =              103
    X Spacing    =        2.000E-01
    Y Spacing    =        2.000E-01
    Z Spacing    =        2.000E-01
    X Minimum    =       -1.040E+01
    Y Minimum    =       -8.900E+00
    Z Minimum    =       -9.646E+00
    X Maximum    =        1.040E+01
    Y Maximum    =        8.900E+00
    Z Maximum    =        1.075E+01

  Basis Set: JUN-CC-PVDZ
    Blend: JUN-CC-PVDZ
    Number of shells: 170
    Number of basis functions: 358
    Number of Cartesian functions: 374
    Spherical Harmonics?: true
    Max angular momentum: 2

*********************************************************************************************************************
When computing potential integrals with different bra and ket basis, the atom definition is taken from the bra basis.
*********************************************************************************************************************
*********************************************************************************************************************
When computing potential integrals with different bra and ket basis, the atom definition is taken from the bra basis.
*********************************************************************************************************************
*********************************************************************************************************************
When computing potential integrals with different bra and ket basis, the atom definition is taken from the bra basis.
*********************************************************************************************************************
  ==> Results <==


    SAPT Results  
  --------------------------------------------------------------------------------------------------------
    Electrostatics                 -1.11674323 [mEh]      -0.70076695 [kcal/mol]      -2.93200894 [kJ/mol]
      Elst10,r                     -1.11674323 [mEh]      -0.70076695 [kcal/mol]      -2.93200894 [kJ/mol]

    Exchange                       11.95582190 [mEh]       7.50239151 [kcal/mol]      31.39000608 [kJ/mol]
      Exch10                       11.95582190 [mEh]       7.50239151 [kcal/mol]      31.39000608 [kJ/mol]
      Exch10(S^2)                  11.91126736 [mEh]       7.47443311 [kcal/mol]      31.27302814 [kJ/mol]

    Induction                      -2.56908771 [mEh]      -1.61212687 [kcal/mol]      -6.74513884 [kJ/mol]
      Ind20,r                      -6.18601146 [mEh]      -3.88178079 [kcal/mol]     -16.24137085 [kJ/mol]
      Exch-Ind20,r                  4.65297358 [mEh]       2.91978500 [kcal/mol]      12.21638044 [kJ/mol]
      delta HF,r (2)               -1.03604982 [mEh]      -0.65013108 [kcal/mol]      -2.72014844 [kJ/mol]
      Induction (A<-B)             -1.28454385 [mEh]      -0.80606344 [kcal/mol]      -3.37256941 [kJ/mol]
      Induction (B<-A)             -1.28454386 [mEh]      -0.80606344 [kcal/mol]      -3.37256943 [kJ/mol]

    Dispersion                     -9.20438112 [mEh]      -5.77583636 [kcal/mol]     -24.16609931 [kJ/mol]
      Disp20                      -10.49113726 [mEh]      -6.58328802 [kcal/mol]     -27.54447709 [kJ/mol]
      Exch-Disp20                   1.28675614 [mEh]       0.80745167 [kcal/mol]       3.37837778 [kJ/mol]

  Total HF                          8.26999097 [mEh]       5.18949768 [kcal/mol]      21.71285830 [kJ/mol]
  Total SAPT0                      -0.93439015 [mEh]      -0.58633867 [kcal/mol]      -2.45324101 [kJ/mol]

  --------------------------------------------------------------------------------------------------------
    Han Solo: This is *not* gonna work.
    Luke Skywalker: Why didn't you say so before?
    Han Solo: I *did* say so before.

    Psi4 stopped on: Thursday, 09 November 2023 01:09PM
    Psi4 wall time for execution: 0:14:49.97

*** Psi4 exiting successfully. Buy a developer a beer!
