
    -----------------------------------------------------------------------
          Psi4: An Open-Source Ab Initio Electronic Structure Package
                               Psi4 1.7 release

                         Git: Rev {HEAD} 6ce35a5 


    D. G. A. Smith, L. A. Burns, A. C. Simmonett, R. M. Parrish,
    M. C. Schieber, R. Galvelis, P. Kraus, H. Kruse, R. Di Remigio,
    A. Alenaizan, A. M. James, S. Lehtola, J. P. Misiewicz, M. Scheurer,
    R. A. Shaw, J. B. Schriber, Y. Xie, Z. L. Glick, D. A. Sirianni,
    J. S. O'Brien, J. M. Waldrop, A. Kumar, E. G. Hohenstein,
    B. P. Pritchard, B. R. Brooks, H. F. Schaefer III, A. Yu. Sokolov,
    K. Patkowski, A. E. DePrince III, U. Bozkaya, R. A. King,
    F. A. Evangelista, J. M. Turney, T. D. Crawford, C. D. Sherrill,
    J. Chem. Phys. 152(18) 184108 (2020). https://doi.org/10.1063/5.0006002

                            Additional Code Authors
    E. T. Seidl, C. L. Janssen, E. F. Valeev, M. L. Leininger,
    J. F. Gonthier, R. M. Richard, H. R. McAlexander, M. Saitow, X. Wang,
    P. Verma, M. H. Lechner, A. Jiang, S. Behnle, A. G. Heide,
    M. F. Herbst, and D. L. Poole

             Previous Authors, Complete List of Code Contributors,
                       and Citations for Specific Modules
    https://github.com/psi4/psi4/blob/master/codemeta.json
    https://github.com/psi4/psi4/graphs/contributors
    http://psicode.org/psi4manual/master/introduction.html#citing-psifour

    -----------------------------------------------------------------------


    Psi4 started on: Thursday, 09 November 2023 03:02PM

    Process ID: 3424
    Host:       DESKTOP-D4OA462
    PSIDATADIR: C:\Users\Ivan\.conda\envs\psi4\lib\share\psi4
    Memory:     500.0 MiB
    Threads:    1
    
  ==> Input File <==

--------------------------------------------------------------------------
memory 12000 MiB
mol = psi4.core.Molecule.from_arrays(
    elez=[8,6,6,6,6,6,6,1,1,1,1,1,8,6,6,6,6,6,6,1,1,1,1,1,6,1,1,6,1,1],
    fragment_separators=[12, 24],
    fix_com=True,
    fix_orientation=True,
    fix_symmetry='c1',
    fragment_multiplicities=[2, 2, 1],
    molecular_charge=0,
    molecular_multiplicity=1,
    geom= [
       -0.928570740,      0.618884176,      0.023143976,
       -2.078485090,      0.014950567,     -0.361781838,
       -2.947072497,      0.525857242,     -1.319283514,
       -2.372606554,     -1.190596926,      0.271241017,
       -4.103709829,     -0.177126392,     -1.635378375,
       -3.526886195,     -1.875785600,     -0.053147503,
       -4.401749482,     -1.374449847,     -1.010390526,
       -2.738241953,      1.461299076,     -1.818921308,
       -1.676869860,     -1.572276620,      1.008200814,
       -4.775917889,      0.226384420,     -2.383430559,
       -3.744654008,     -2.813944656,      0.442585118,
       -5.304440566,     -1.915022771,     -1.264315629,
                                                        
        1.864548970,      1.377701888,     -0.638882842,
        2.406199879,      0.409771805,      0.146163061,
        3.608179496,     -0.123664461,     -0.312734840,
        1.845808775,     -0.065306746,      1.326288922,
        4.245688227,     -1.117694043,      0.405560659,
        2.503568897,     -1.057798661,      2.041441491,
        3.700767308,     -1.589498576,      1.593065181,
        4.023834346,      0.258583103,     -1.236209365,
        0.889696390,      0.298693905,      1.671163396,
        5.180153584,     -1.523207559,      0.037248407,
        2.058738059,     -1.423521012,      2.959168567,
        4.201681584,     -2.365956284,      2.157077410,
                                                        
       -0.529131838,      1.789086451,     -0.647514402,
       -0.481650980,      1.614043885,     -1.728127383,
       -1.240623298,      2.603613024,     -0.457629369,
        0.831833634,      2.203334054,     -0.150889795,
        1.038160873,      3.204305261,     -0.538698478,
        0.847682060,      2.256434651,      0.940572227])
activate(mol)       
                    
set {               
basis jun-cc-pvdz   
scf_type df
guess sad
freeze_core true
fisapt_do_plot true
}
energy('fisapt0')
--------------------------------------------------------------------------

  Memory set to  11.719 GiB by Python driver.

Scratch directory: C:\Users\Ivan\AppData\Local\Temp/

*** tstart() called on DESKTOP-D4OA462
*** at Thu Nov  9 15:02:22 2023

   => Loading Basis Set <=

    Name: JUN-CC-PVDZ
    Role: ORBITAL
    Keyword: BASIS
    atoms 1, 13                     entry O          line   232 file C:\Users\Ivan\.conda\envs\psi4\lib\share\psi4\basis\jun-cc-pvdz.gbs 
    atoms 2-7, 14-19, 25, 28        entry C          line   164 file C:\Users\Ivan\.conda\envs\psi4\lib\share\psi4\basis\jun-cc-pvdz.gbs 
    atoms 8-12, 20-24, 26-27, 29-30 entry H          line    36 file C:\Users\Ivan\.conda\envs\psi4\lib\share\psi4\basis\jun-cc-pvdz.gbs 


         ---------------------------------------------------------
                                   SCF
               by Justin Turney, Rob Parrish, Andy Simmonett
                          and Daniel G. A. Smith
                              RHF Reference
                        1 Threads,   -288 MiB Core
         ---------------------------------------------------------

  ==> Geometry <==

    Molecular point group: c1
    Full point group: C1

    Geometry (in Angstrom), charge = 0, multiplicity = 1:

       Center              X                  Y                   Z               Mass       
    ------------   -----------------  -----------------  -----------------  -----------------
         O           -0.928570740000     0.618884176000     0.023143976000    15.994914619570
         C           -2.078485090000     0.014950567000    -0.361781838000    12.000000000000
         C           -2.947072497000     0.525857242000    -1.319283514000    12.000000000000
         C           -2.372606554000    -1.190596926000     0.271241017000    12.000000000000
         C           -4.103709829000    -0.177126392000    -1.635378375000    12.000000000000
         C           -3.526886195000    -1.875785600000    -0.053147503000    12.000000000000
         C           -4.401749482000    -1.374449847000    -1.010390526000    12.000000000000
         H           -2.738241953000     1.461299076000    -1.818921308000     1.007825032230
         H           -1.676869860000    -1.572276620000     1.008200814000     1.007825032230
         H           -4.775917889000     0.226384420000    -2.383430559000     1.007825032230
         H           -3.744654008000    -2.813944656000     0.442585118000     1.007825032230
         H           -5.304440566000    -1.915022771000    -1.264315629000     1.007825032230
         O            1.864548970000     1.377701888000    -0.638882842000    15.994914619570
         C            2.406199879000     0.409771805000     0.146163061000    12.000000000000
         C            3.608179496000    -0.123664461000    -0.312734840000    12.000000000000
         C            1.845808775000    -0.065306746000     1.326288922000    12.000000000000
         C            4.245688227000    -1.117694043000     0.405560659000    12.000000000000
         C            2.503568897000    -1.057798661000     2.041441491000    12.000000000000
         C            3.700767308000    -1.589498576000     1.593065181000    12.000000000000
         H            4.023834346000     0.258583103000    -1.236209365000     1.007825032230
         H            0.889696390000     0.298693905000     1.671163396000     1.007825032230
         H            5.180153584000    -1.523207559000     0.037248407000     1.007825032230
         H            2.058738059000    -1.423521012000     2.959168567000     1.007825032230
         H            4.201681584000    -2.365956284000     2.157077410000     1.007825032230
         C           -0.529131838000     1.789086451000    -0.647514402000    12.000000000000
         H           -0.481650980000     1.614043885000    -1.728127383000     1.007825032230
         H           -1.240623298000     2.603613024000    -0.457629369000     1.007825032230
         C            0.831833634000     2.203334054000    -0.150889795000    12.000000000000
         H            1.038160873000     3.204305261000    -0.538698478000     1.007825032230
         H            0.847682060000     2.256434651000     0.940572227000     1.007825032230

  Running in c1 symmetry.

  Rotational constants: A =      0.03641  B =      0.00876  C =      0.00758 [cm^-1]
  Rotational constants: A =   1091.68681  B =    262.47004  C =    227.15539 [MHz]
  Nuclear repulsion = 1011.539644749460535

  Charge       = 0
  Multiplicity = 1
  Electrons    = 114
  Nalpha       = 57
  Nbeta        = 57

  ==> Algorithm <==

  SCF Algorithm Type is DF.
  DIIS enabled.
  MOM disabled.
  Fractional occupation disabled.
  Guess Type is SAD.
  Energy threshold   = 1.00e-08
  Density threshold  = 1.00e-08
  Integral threshold = 1.00e-12

  ==> Primary Basis <==

  Basis Set: JUN-CC-PVDZ
    Blend: JUN-CC-PVDZ
    Number of shells: 170
    Number of basis functions: 358
    Number of Cartesian functions: 374
    Spherical Harmonics?: true
    Max angular momentum: 2

   => Loading Basis Set <=

    Name: (JUN-CC-PVDZ AUX)
    Role: JKFIT
    Keyword: DF_BASIS_SCF
    atoms 1, 13                     entry O          line   258 file C:\Users\Ivan\.conda\envs\psi4\lib\share\psi4\basis\jun-cc-pvdz-jkfit.gbs 
    atoms 2-7, 14-19, 25, 28        entry C          line   146 file C:\Users\Ivan\.conda\envs\psi4\lib\share\psi4\basis\jun-cc-pvdz-jkfit.gbs 
    atoms 8-12, 20-24, 26-27, 29-30 entry H          line    70 file C:\Users\Ivan\.conda\envs\psi4\lib\share\psi4\basis\jun-cc-pvdz-jkfit.gbs 

  ==> Integral Setup <==

  DFHelper Memory: AOs need 1.338 GiB; user supplied 8.789 GiB. Using in-core AOs.

  ==> MemDFJK: Density-Fitted J/K Matrices <==

    J tasked:                   Yes
    K tasked:                   Yes
    wK tasked:                   No
    OpenMP threads:               1
    Memory [MiB]:              9000
    Algorithm:                 Core
    Schwarz Cutoff:           1E-12
    Mask sparsity (%):      14.3051
    Fitting Condition:        1E-10

   => Auxiliary Basis Set <=

  Basis Set: (JUN-CC-PVDZ AUX)
    Blend: JUN-CC-PVDZ-JKFIT
    Number of shells: 558
    Number of basis functions: 1586
    Number of Cartesian functions: 1806
    Spherical Harmonics?: true
    Max angular momentum: 3

  Minimum eigenvalue in the overlap matrix is 6.2344494582E-06.
  Reciprocal condition number of the overlap matrix is 4.5841158359E-07.
    Using symmetric orthogonalization.

  ==> Pre-Iterations <==

  SCF Guess: Superposition of Atomic Densities via on-the-fly atomic UHF (no occupation information).

   -------------------------
    Irrep   Nso     Nmo    
   -------------------------
     A        358     358 
   -------------------------
    Total     358     358
   -------------------------

  ==> Iterations <==

                           Total Energy        Delta E     RMS |[F,P]|

   @DF-RHF iter SAD:  -687.60189650587279   -6.87602e+02   0.00000e+00 
   @DF-RHF iter   1:  -687.66624229229365   -6.43458e-02   2.21490e-03 ADIIS/DIIS
   @DF-RHF iter   2:  -688.00735779718286   -3.41116e-01   9.81023e-04 ADIIS/DIIS
   @DF-RHF iter   3:  -688.07144084865661   -6.40831e-02   1.91885e-04 ADIIS/DIIS
   @DF-RHF iter   4:  -688.07541912781824   -3.97828e-03   5.77913e-05 DIIS
   @DF-RHF iter   5:  -688.07567421019132   -2.55082e-04   1.59371e-05 DIIS
   @DF-RHF iter   6:  -688.07570254676978   -2.83366e-05   5.40472e-06 DIIS
   @DF-RHF iter   7:  -688.07570592144953   -3.37468e-06   1.71594e-06 DIIS
   @DF-RHF iter   8:  -688.07570645221358   -5.30764e-07   5.93860e-07 DIIS
   @DF-RHF iter   9:  -688.07570653714890   -8.49353e-08   2.39051e-07 DIIS
   @DF-RHF iter  10:  -688.07570654886342   -1.17145e-08   1.04745e-07 DIIS
   @DF-RHF iter  11:  -688.07570655327413   -4.41071e-09   4.64749e-08 DIIS
   @DF-RHF iter  12:  -688.07570655415861   -8.84484e-10   1.84938e-08 DIIS
   @DF-RHF iter  13:  -688.07570655425081   -9.22000e-11   5.02092e-09 DIIS
  Energy and wave function converged.


  ==> Post-Iterations <==

    Orbital Energies [Eh]
    ---------------------

    Doubly Occupied:                                                      

       1A    -20.597117     2A    -20.589168     3A    -11.308438  
       4A    -11.302035     5A    -11.300913     6A    -11.300737  
       7A    -11.247314     8A    -11.245646     9A    -11.239537  
      10A    -11.239437    11A    -11.238519    12A    -11.234667  
      13A    -11.233500    14A    -11.229195    15A    -11.227606  
      16A    -11.226951    17A     -1.435554    18A     -1.416657  
      19A     -1.158610    20A     -1.150423    21A     -1.064507  
      22A     -1.026141    23A     -1.017873    24A     -1.014360  
      25A     -0.982818    26A     -0.893161    27A     -0.838210  
      28A     -0.834537    29A     -0.817000    30A     -0.797745  
      31A     -0.741890    32A     -0.727493    33A     -0.686434  
      34A     -0.679440    35A     -0.669614    36A     -0.660429  
      37A     -0.646521    38A     -0.631291    39A     -0.614041  
      40A     -0.609564    41A     -0.592148    42A     -0.587040  
      43A     -0.580682    44A     -0.553798    45A     -0.535246  
      46A     -0.522369    47A     -0.515403    48A     -0.514229  
      49A     -0.508088    50A     -0.488448    51A     -0.477489  
      52A     -0.472203    53A     -0.461087    54A     -0.344258  
      55A     -0.336042    56A     -0.316704    57A     -0.308604  

    Virtual:                                                              

      58A      0.054871    59A      0.060525    60A      0.061988  
      61A      0.070715    62A      0.075358    63A      0.080209  
      64A      0.086755    65A      0.087931    66A      0.097691  
      67A      0.101457    68A      0.106459    69A      0.108403  
      70A      0.110027    71A      0.115497    72A      0.120645  
      73A      0.123680    74A      0.125471    75A      0.128864  
      76A      0.130308    77A      0.136190    78A      0.140037  
      79A      0.145008    80A      0.149942    81A      0.157812  
      82A      0.164488    83A      0.166392    84A      0.168284  
      85A      0.172778    86A      0.178498    87A      0.188267  
      88A      0.196244    89A      0.196799    90A      0.203308  
      91A      0.207958    92A      0.212767    93A      0.213878  
      94A      0.215631    95A      0.222977    96A      0.230908  
      97A      0.235836    98A      0.237226    99A      0.242538  
     100A      0.246934   101A      0.254941   102A      0.260056  
     103A      0.261153   104A      0.267804   105A      0.276896  
     106A      0.279173   107A      0.283643   108A      0.289117  
     109A      0.291383   110A      0.294379   111A      0.296274  
     112A      0.299435   113A      0.302486   114A      0.309904  
     115A      0.316310   116A      0.320006   117A      0.332637  
     118A      0.333645   119A      0.340310   120A      0.346555  
     121A      0.349235   122A      0.361641   123A      0.370569  
     124A      0.372878   125A      0.379928   126A      0.383441  
     127A      0.388915   128A      0.396331   129A      0.398957  
     130A      0.403050   131A      0.406897   132A      0.409756  
     133A      0.417095   134A      0.426139   135A      0.429936  
     136A      0.439265   137A      0.440807   138A      0.449271  
     139A      0.460961   140A      0.466443   141A      0.479131  
     142A      0.487417   143A      0.489064   144A      0.498385  
     145A      0.516376   146A      0.525494   147A      0.539004  
     148A      0.556222   149A      0.557683   150A      0.567588  
     151A      0.574074   152A      0.586396   153A      0.609573  
     154A      0.619602   155A      0.721615   156A      0.743337  
     157A      0.751051   158A      0.766494   159A      0.794826  
     160A      0.799653   161A      0.817180   162A      0.820189  
     163A      0.829428   164A      0.832394   165A      0.840822  
     166A      0.856517   167A      0.862803   168A      0.866828  
     169A      0.877763   170A      0.880677   171A      0.885535  
     172A      0.893917   173A      0.905602   174A      0.911570  
     175A      0.917128   176A      0.921406   177A      0.931884  
     178A      0.935725   179A      0.946525   180A      0.947964  
     181A      0.953452   182A      0.956414   183A      0.960177  
     184A      0.966218   185A      0.968661   186A      0.970763  
     187A      0.973736   188A      0.977553   189A      0.985362  
     190A      0.989566   191A      0.996969   192A      1.002214  
     193A      1.006215   194A      1.012721   195A      1.022578  
     196A      1.030852   197A      1.045272   198A      1.052685  
     199A      1.062628   200A      1.085283   201A      1.104268  
     202A      1.113337   203A      1.124970   204A      1.143387  
     205A      1.154513   206A      1.159842   207A      1.164963  
     208A      1.174367   209A      1.186423   210A      1.202129  
     211A      1.208611   212A      1.220593   213A      1.235084  
     214A      1.244856   215A      1.247322   216A      1.247702  
     217A      1.262429   218A      1.264155   219A      1.268948  
     220A      1.271971   221A      1.283489   222A      1.301691  
     223A      1.310627   224A      1.316051   225A      1.322389  
     226A      1.330570   227A      1.357028   228A      1.367514  
     229A      1.370077   230A      1.373876   231A      1.379727  
     232A      1.388606   233A      1.396831   234A      1.401434  
     235A      1.488958   236A      1.499787   237A      1.508944  
     238A      1.519260   239A      1.528782   240A      1.538635  
     241A      1.544388   242A      1.587814   243A      1.614225  
     244A      1.671063   245A      1.686812   246A      1.708429  
     247A      1.743497   248A      1.750221   249A      1.764022  
     250A      1.767310   251A      1.773406   252A      1.781431  
     253A      1.799492   254A      1.810660   255A      1.816747  
     256A      1.820783   257A      1.830661   258A      1.852262  
     259A      1.877632   260A      1.901771   261A      1.916262  
     262A      1.919335   263A      1.924448   264A      1.931553  
     265A      1.937052   266A      1.948466   267A      1.952832  
     268A      1.962529   269A      1.965796   270A      1.966461  
     271A      1.970459   272A      1.980954   273A      1.988585  
     274A      1.994850   275A      2.003078   276A      2.007381  
     277A      2.015683   278A      2.039614   279A      2.043896  
     280A      2.068501   281A      2.074051   282A      2.079309  
     283A      2.089244   284A      2.095311   285A      2.102598  
     286A      2.104772   287A      2.112252   288A      2.132089  
     289A      2.141294   290A      2.163928   291A      2.167505  
     292A      2.181677   293A      2.182835   294A      2.183930  
     295A      2.189673   296A      2.196613   297A      2.199780  
     298A      2.208497   299A      2.216568   300A      2.244102  
     301A      2.260102   302A      2.272270   303A      2.286709  
     304A      2.297060   305A      2.304690   306A      2.333529  
     307A      2.364425   308A      2.397648   309A      2.403309  
     310A      2.412417   311A      2.429660   312A      2.434683  
     313A      2.455873   314A      2.493534   315A      2.504312  
     316A      2.516087   317A      2.520648   318A      2.544496  
     319A      2.564211   320A      2.609520   321A      2.637730  
     322A      2.648149   323A      2.750629   324A      2.768853  
     325A      2.775625   326A      2.791399   327A      2.810010  
     328A      2.814218   329A      2.820631   330A      2.843112  
     331A      2.846293   332A      2.854934   333A      2.867957  
     334A      2.885745   335A      2.944362   336A      2.976250  
     337A      3.021865   338A      3.027605   339A      3.049948  
     340A      3.055440   341A      3.099428   342A      3.107920  
     343A      3.189272   344A      3.193427   345A      3.244119  
     346A      3.286865   347A      3.297094   348A      3.300035  
     349A      3.436131   350A      3.451515   351A      3.522862  
     352A      3.585090   353A      3.748784   354A      3.764116  
     355A      3.862129   356A      3.906875   357A      4.123751  
     358A      4.131527  

    Final Occupation by Irrep:
              A 
    DOCC [    57 ]
    NA   [    57 ]
    NB   [    57 ]

  @DF-RHF Final Energy:  -688.07570655425081

   => Energetics <=

    Nuclear Repulsion Energy =           1011.5396447494605354
    One-Electron Energy =               -2943.2528424168576748
    Two-Electron Energy =                1243.6374911131465524
    Total Energy =                       -688.0757065542507007

Computation Completed


Properties will be evaluated at   0.000000,   0.000000,   0.000000 [a0]

Properties computed using the SCF density matrix


 Multipole Moments:

 ------------------------------------------------------------------------------------
     Multipole            Electronic (a.u.)      Nuclear  (a.u.)        Total (a.u.)
 ------------------------------------------------------------------------------------

 L = 1.  Multiply by 2.5417464519 to convert [e a0] to [Debye]
 Dipole X            :         -2.1281418            1.6247914           -0.5033504
 Dipole Y            :         10.8983016          -10.3772607            0.5210410
 Dipole Z            :          6.3747242           -6.3899007           -0.0151765
 Magnitude           :                                                    0.7246210

 ------------------------------------------------------------------------------------

*** tstop() called on DESKTOP-D4OA462 at Thu Nov  9 15:03:02 2023
Module time:
	user time   =        nan seconds =        nan minutes
	system time =        nan seconds =        nan minutes
	total time  =         40 seconds =       0.67 minutes
Total time:
	user time   =        nan seconds =        nan minutes
	system time =        nan seconds =        nan minutes
	total time  =         40 seconds =       0.67 minutes
  Constructing Basis Sets for FISAPT...

   => Loading Basis Set <=

    Name: (JUN-CC-PVDZ AUX)
    Role: JKFIT
    Keyword: DF_BASIS_SCF
    atoms 1, 13                     entry O          line   258 file C:\Users\Ivan\.conda\envs\psi4\lib\share\psi4\basis\jun-cc-pvdz-jkfit.gbs 
    atoms 2-7, 14-19, 25, 28        entry C          line   146 file C:\Users\Ivan\.conda\envs\psi4\lib\share\psi4\basis\jun-cc-pvdz-jkfit.gbs 
    atoms 8-12, 20-24, 26-27, 29-30 entry H          line    70 file C:\Users\Ivan\.conda\envs\psi4\lib\share\psi4\basis\jun-cc-pvdz-jkfit.gbs 

   => Loading Basis Set <=

    Name: (JUN-CC-PVDZ AUX)
    Role: RIFIT
    Keyword: DF_BASIS_SAPT
    atoms 1, 13                     entry O          line   188 file C:\Users\Ivan\.conda\envs\psi4\lib\share\psi4\basis\jun-cc-pvdz-ri.gbs 
    atoms 2-7, 14-19, 25, 28        entry C          line   100 file C:\Users\Ivan\.conda\envs\psi4\lib\share\psi4\basis\jun-cc-pvdz-ri.gbs 
    atoms 8-12, 20-24, 26-27, 29-30 entry H          line    30 file C:\Users\Ivan\.conda\envs\psi4\lib\share\psi4\basis\jun-cc-pvdz-ri.gbs 

   => Loading Basis Set <=

    Name: CC-PVTZ-MINAO
    Role: ORBITAL
    Keyword: BASIS
    atoms 1, 13                     entry O          line   179 file C:\Users\Ivan\.conda\envs\psi4\lib\share\psi4\basis\cc-pvtz-minao.gbs 
    atoms 2-7, 14-19, 25, 28        entry C          line   119 file C:\Users\Ivan\.conda\envs\psi4\lib\share\psi4\basis\cc-pvtz-minao.gbs 
    atoms 8-12, 20-24, 26-27, 29-30 entry H          line    20 file C:\Users\Ivan\.conda\envs\psi4\lib\share\psi4\basis\cc-pvtz-minao.gbs 

	 --------------------------------------------
	                    FISAPT0                  
	                  Rob Parrish                
	 --------------------------------------------

    Do F-SAPT =         Yes
    Do Plot   =         Yes
    Memory    =      10.547 [GiB]

  ==> Localization (IBO) <==

  ==> IBO Localizer 2 <==

    MinAO Basis = CC-PVTZ-MINAO
    Use Ghosts  =       FALSE
    Use Stars   =       FALSE
    Condition   =   1.000E-07
    Power       =           4
    Convergence =   1.000E-12
    Maxiter     =         200

    @IBO Iter:                   Metric       Gradient
    @IBO    1:   1.9699187508379916E+00   2.559436E+00
    @IBO    2:   2.1396449486016627E+00   1.653431E+00
    @IBO    3:   2.2007825220600803E+00   8.377350E-01
    @IBO    4:   2.2077075097159393E+00   8.550177E-02
    @IBO    5:   2.2077598312695783E+00   2.547213E-03
    @IBO    6:   2.2077598798712170E+00   1.149928E-04
    @IBO    7:   2.2077598803664285E+00   2.232139E-05
    @IBO    8:   2.2077598803864524E+00   4.645720E-06
    @IBO    9:   2.2077598803873038E+00   9.834177E-07
    @IBO   10:   2.2077598803873402E+00   2.091844E-07
    @IBO   11:   2.2077598803873411E+00   4.452615E-08
    @IBO   12:   2.2077598803873415E+00   9.472058E-09
    @IBO   13:   2.2077598803873415E+00   2.013456E-09
    @IBO   14:   2.2077598803873415E+00   4.277580E-10
    @IBO   15:   2.2077598803873415E+00   9.085521E-11
    @IBO   16:   2.2077598803873415E+00   1.929925E-11
    @IBO   17:   2.2077598803873415E+00   4.101145E-12
    @IBO   18:   2.2077598803873415E+00   8.720953E-13

    IBO Localizer 2 converged.

  ==> Partitioning <==

   => Atomic Partitioning <= 

    Monomer A:  12 atoms
    Monomer B:  12 atoms
    Monomer C:   6 atoms

   => Link Bond Identification <=

    Link Bond Selection = AUTOMATIC

    Charge Completeness = 0.800

    Total Link Bonds = 2

    --------------------------
    N     Orb Type Aind1 Aind2
    --------------------------
    1      33   AC     1    25
    2      44   BC    13    28
    --------------------------

   => Link Bond Assignment <=

    Link Bond Assignment      = C

   => Partition Summary <=

    Monomer A:  0 charge,  48 protons,  48 electrons,  24 docc
    Monomer B:  0 charge,  48 protons,  48 electrons,  24 docc
    Monomer C:  0 charge,  18 protons,  18 electrons,   9 docc

  ==> Overlap Integrals <==

  ==> Kinetic Integrals <==

  ==> Nuclear Integrals <==

    Nuclear Repulsion Tot:   1.0115396447494606E+03 [Eh]

  ==> Coulomb Integrals <==

  DFHelper Memory: AOs need 1.338 GiB; user supplied 10.544 GiB. Using in-core AOs.

  ==> MemDFJK: Density-Fitted J/K Matrices <==

    J tasked:                   Yes
    K tasked:                   Yes
    wK tasked:                   No
    OpenMP threads:               1
    Memory [MiB]:             10800
    Algorithm:                 Core
    Schwarz Cutoff:           1E-12
    Mask sparsity (%):      14.3051
    Fitting Condition:        1E-10

   => Auxiliary Basis Set <=

  Basis Set: (JUN-CC-PVDZ AUX)
    Blend: JUN-CC-PVDZ-JKFIT
    Number of shells: 558
    Number of basis functions: 1586
    Number of Cartesian functions: 1806
    Spherical Harmonics?: true
    Max angular momentum: 3

  ==> Relaxed SCF Equations <==

  ==> SCF A: <==

    Maxiter =         100
    E Tol   =   1.000E-08
    D Tol   =   1.000E-08

    Max DIIS Vectors = 10

    Iter   N:                        E          dE         |D|
    Iter   1:  -2.9729247268016081E+02  -2.973E+02   6.729E-04 
    Iter   2:  -2.9730403857364877E+02  -1.157E-02   4.424E-05 DIIS
    Iter   3:  -2.9730425257783099E+02  -2.140E-04   8.908E-06 DIIS
    Iter   4:  -2.9730426243407072E+02  -9.856E-06   4.099E-06 DIIS
    Iter   5:  -2.9730426374893642E+02  -1.315E-06   9.177E-07 DIIS
    Iter   6:  -2.9730426390547251E+02  -1.565E-07   4.860E-07 DIIS
    Iter   7:  -2.9730426394880527E+02  -4.333E-08   2.180E-07 DIIS
    Iter   8:  -2.9730426396590951E+02  -1.710E-08   8.233E-08 DIIS
    Iter   9:  -2.9730426396818842E+02  -2.279E-09   3.265E-08 DIIS
    Iter  10:  -2.9730426396850947E+02  -3.211E-10   5.827E-09 DIIS

    FISAPTSCF Converged.

    Final SCF Energy:  -2.9730426396850947E+02 [Eh]

   => Occupied Orbital Energies <=

       1  -20.584523     2  -11.301386     3  -11.242819  
       4  -11.241120     5  -11.233564     6  -11.228850  
       7  -11.228525     8   -1.230527     9   -1.126637  
      10   -1.019983    11   -0.968485    12   -0.832324  
      13   -0.790180    14   -0.689394    15   -0.651041  
      16   -0.616842    17   -0.588672    18   -0.585172  
      19   -0.574567    20   -0.514410    21   -0.491995  
      22   -0.479847    23   -0.339875    24   -0.310999  

   => Virtual Orbital Energies <=

      25    0.033341    26    0.052574    27    0.059905  
      28    0.063258    29    0.068974    30    0.073977  
      31    0.081266    32    0.087198    33    0.090585  
      34    0.097393    35    0.104313    36    0.107157  
      37    0.110541    38    0.114815    39    0.120889  
      40    0.122739    41    0.127529    42    0.129416  
      43    0.132245    44    0.137940    45    0.143624  
      46    0.147299    47    0.151191    48    0.153131  
      49    0.156562    50    0.165311    51    0.167846  
      52    0.176447    53    0.177716    54    0.184636  
      55    0.188379    56    0.190376    57    0.196663  
      58    0.203300    59    0.207046    60    0.210379  
      61    0.213435    62    0.217053    63    0.224750  
      64    0.226737    65    0.235554    66    0.237123  
      67    0.241716    68    0.245789    69    0.250647  
      70    0.257196    71    0.261500    72    0.262978  
      73    0.269098    74    0.277862    75    0.284787  
      76    0.289496    77    0.294707    78    0.295284  
      79    0.300545    80    0.302657    81    0.313338  
      82    0.325700    83    0.333886    84    0.337465  
      85    0.339333    86    0.353459    87    0.358879  
      88    0.367907    89    0.377145    90    0.382174  
      91    0.386384    92    0.394716    93    0.400164  
      94    0.407942    95    0.413658    96    0.420531  
      97    0.432315    98    0.439958    99    0.440986  
     100    0.450561   101    0.455215   102    0.455693  
     103    0.460977   104    0.473163   105    0.477280  
     106    0.482529   107    0.491222   108    0.492872  
     109    0.498555   110    0.511675   111    0.521169  
     112    0.524604   113    0.534564   114    0.551845  
     115    0.556324   116    0.571544   117    0.577129  
     118    0.581225   119    0.591069   120    0.612364  
     121    0.629204   122    0.634602   123    0.647271  
     124    0.669594   125    0.682894   126    0.705444  
     127    0.732040   128    0.741879   129    0.761937  
     130    0.769050   131    0.790036   132    0.803740  
     133    0.807028   134    0.821780   135    0.825967  
     136    0.830692   137    0.839215   138    0.857722  
     139    0.872753   140    0.887449   141    0.893597  
     142    0.910876   143    0.921686   144    0.928179  
     145    0.930249   146    0.943803   147    0.947399  
     148    0.958704   149    0.962437   150    0.968289  
     151    0.972156   152    0.979274   153    0.981864  
     154    0.991930   155    0.993392   156    0.998076  
     157    1.006963   158    1.028712   159    1.034894  
     160    1.049041   161    1.055054   162    1.080750  
     163    1.091660   164    1.116949   165    1.127500  
     166    1.136375   167    1.160657   168    1.173800  
     169    1.190012   170    1.213088   171    1.232131  
     172    1.239149   173    1.247916   174    1.249822  
     175    1.260402   176    1.269977   177    1.279291  
     178    1.296439   179    1.323488   180    1.330021  
     181    1.357677   182    1.371030   183    1.381262  
     184    1.385976   185    1.405212   186    1.479174  
     187    1.501948   188    1.521136   189    1.538537  
     190    1.591762   191    1.611817   192    1.654617  
     193    1.661148   194    1.673167   195    1.688630  
     196    1.710127   197    1.749771   198    1.759512  
     199    1.765384   200    1.770983   201    1.771843  
     202    1.784327   203    1.793824   204    1.809024  
     205    1.815634   206    1.818799   207    1.828968  
     208    1.850062   209    1.862481   210    1.866548  
     211    1.887743   212    1.904748   213    1.915370  
     214    1.921730   215    1.925938   216    1.935167  
     217    1.942741   218    1.945635   219    1.958582  
     220    1.963950   221    1.975790   222    1.985134  
     223    1.987777   224    1.989085   225    2.005694  
     226    2.020791   227    2.028115   228    2.031533  
     229    2.040067   230    2.052780   231    2.060561  
     232    2.068319   233    2.077118   234    2.105216  
     235    2.108266   236    2.121724   237    2.125383  
     238    2.138536   239    2.144333   240    2.150874  
     241    2.158233   242    2.164282   243    2.184010  
     244    2.186645   245    2.189159   246    2.195546  
     247    2.203259   248    2.213955   249    2.219838  
     250    2.227118   251    2.242350   252    2.255083  
     253    2.275542   254    2.283670   255    2.307457  
     256    2.312855   257    2.314351   258    2.330480  
     259    2.343572   260    2.360545   261    2.373081  
     262    2.382826   263    2.410810   264    2.423545  
     265    2.429596   266    2.445019   267    2.457745  
     268    2.472012   269    2.481005   270    2.497814  
     271    2.511595   272    2.523081   273    2.532808  
     274    2.548517   275    2.571100   276    2.575934  
     277    2.596938   278    2.618642   279    2.647078  
     280    2.672737   281    2.686389   282    2.740688  
     283    2.767799   284    2.783213   285    2.799325  
     286    2.812395   287    2.816612   288    2.822424  
     289    2.843241   290    2.860742   291    2.868635  
     292    2.872292   293    2.876717   294    2.922218  
     295    2.955285   296    2.978276   297    3.022370  
     298    3.037318   299    3.060860   300    3.078472  
     301    3.103358   302    3.120016   303    3.130667  
     304    3.140058   305    3.154280   306    3.196919  
     307    3.211806   308    3.256694   309    3.286958  
     310    3.297856   311    3.301038   312    3.413640  
     313    3.444557   314    3.455451   315    3.550229  
     316    3.575345   317    3.588473   318    3.659821  
     319    3.712374   320    3.774193   321    3.870759  
     322    3.896006   323    4.139146   324    4.151408  
     325    4.283190   326    4.320290   327    4.335163  
     328    4.358558   329    4.451232   330    4.528883  
     331    4.576524   332    4.777493   333    4.919353  
     334    5.031825   335    5.164507   336    5.392577  
     337    5.420938   338    5.471574   339    5.486467  
     340    5.565346   341    5.707753   342    6.023487  
     343   17.982395   344   18.133305   345   18.145683  
     346   18.593389   347   18.621815   348   19.275664  
     349   26.466697  

  ==> SCF B: <==

    Maxiter =         100
    E Tol   =   1.000E-08
    D Tol   =   1.000E-08

    Max DIIS Vectors = 10

    Iter   N:                        E          dE         |D|
    Iter   1:  -2.9748307580591086E+02  -2.975E+02   3.224E-04 
    Iter   2:  -2.9748612172445968E+02  -3.046E-03   2.968E-05 DIIS
    Iter   3:  -2.9748625107924840E+02  -1.294E-04   1.207E-05 DIIS
    Iter   4:  -2.9748627006165088E+02  -1.898E-05   6.185E-06 DIIS
    Iter   5:  -2.9748627622894008E+02  -6.167E-06   1.900E-06 DIIS
    Iter   6:  -2.9748627721262960E+02  -9.837E-07   9.784E-07 DIIS
    Iter   7:  -2.9748627754735872E+02  -3.347E-07   4.128E-07 DIIS
    Iter   8:  -2.9748627760737850E+02  -6.002E-08   1.279E-07 DIIS
    Iter   9:  -2.9748627761102972E+02  -3.651E-09   3.499E-08 DIIS
    Iter  10:  -2.9748627761131718E+02  -2.875E-10   1.227E-08 DIIS
    Iter  11:  -2.9748627761133736E+02  -2.018E-11   4.718E-09 DIIS

    FISAPTSCF Converged.

    Final SCF Energy:  -2.9748627761133736E+02 [Eh]

   => Occupied Orbital Energies <=

       1  -20.586954     2  -11.306419     3  -11.246426  
       4  -11.244035     5  -11.237901     6  -11.231467  
       7  -11.231189     8   -1.232022     9   -1.129145  
      10   -1.023215    11   -0.970763    12   -0.835457  
      13   -0.793134    14   -0.691698    15   -0.653638  
      16   -0.622018    17   -0.592605    18   -0.589904  
      19   -0.569886    20   -0.518295    21   -0.495686  
      22   -0.482017    23   -0.343042    24   -0.314820  

   => Virtual Orbital Energies <=

      25    0.033245    26    0.051621    27    0.058809  
      28    0.065908    29    0.069840    30    0.075227  
      31    0.079865    32    0.084354    33    0.090395  
      34    0.096414    35    0.098635    36    0.104001  
      37    0.108666    38    0.114192    39    0.116975  
      40    0.122265    41    0.123814    42    0.126248  
      43    0.134247    44    0.137860    45    0.145013  
      46    0.147847    47    0.154393    48    0.159859  
      49    0.160873    50    0.165045    51    0.165393  
      52    0.168124    53    0.174659    54    0.178444  
      55    0.186066    56    0.189572    57    0.195518  
      58    0.196879    59    0.200192    60    0.206202  
      61    0.214726    62    0.219321    63    0.222866  
      64    0.224788    65    0.231389    66    0.235534  
      67    0.241570    68    0.247598    69    0.254902  
      70    0.264041    71    0.266738    72    0.270132  
      73    0.274396    74    0.279824    75    0.282822  
      76    0.284720    77    0.289304    78    0.294927  
      79    0.296706    80    0.302279    81    0.306948  
      82    0.312622    83    0.316789    84    0.327364  
      85    0.351262    86    0.352342    87    0.365595  
      88    0.370959    89    0.373459    90    0.378927  
      91    0.388820    92    0.392298    93    0.399568  
      94    0.402365    95    0.411121    96    0.418310  
      97    0.422141    98    0.434211    99    0.438680  
     100    0.445487   101    0.449100   102    0.455301  
     103    0.458624   104    0.464683   105    0.472366  
     106    0.474684   107    0.482462   108    0.486774  
     109    0.492402   110    0.499009   111    0.521350  
     112    0.524563   113    0.534158   114    0.543690  
     115    0.550192   116    0.562158   117    0.574297  
     118    0.597421   119    0.600496   120    0.618025  
     121    0.621962   122    0.638750   123    0.648929  
     124    0.670317   125    0.672766   126    0.700651  
     127    0.725556   128    0.745659   129    0.755344  
     130    0.759394   131    0.768495   132    0.793194  
     133    0.798426   134    0.811789   135    0.833275  
     136    0.839853   137    0.861284   138    0.873122  
     139    0.877744   140    0.884897   141    0.896713  
     142    0.906938   143    0.917801   144    0.922831  
     145    0.929193   146    0.939193   147    0.942443  
     148    0.948180   149    0.957809   150    0.969297  
     151    0.970317   152    0.975957   153    0.984418  
     154    0.989395   155    0.994294   156    1.009955  
     157    1.013936   158    1.018162   159    1.033665  
     160    1.052511   161    1.056245   162    1.080097  
     163    1.100784   164    1.106503   165    1.137153  
     166    1.141755   167    1.150215   168    1.160842  
     169    1.179808   170    1.196763   171    1.212248  
     172    1.236615   173    1.246147   174    1.254993  
     175    1.259708   176    1.270992   177    1.285333  
     178    1.295477   179    1.310772   180    1.320739  
     181    1.339984   182    1.369157   183    1.373238  
     184    1.386476   185    1.404524   186    1.443654  
     187    1.512498   188    1.521240   189    1.530597  
     190    1.563331   191    1.636477   192    1.649715  
     193    1.674682   194    1.694970   195    1.696844  
     196    1.711403   197    1.749872   198    1.754615  
     199    1.758430   200    1.764052   201    1.771362  
     202    1.776881   203    1.788169   204    1.796350  
     205    1.802836   206    1.811264   207    1.815763  
     208    1.822398   209    1.863069   210    1.880722  
     211    1.903340   212    1.907100   213    1.913025  
     214    1.926251   215    1.927217   216    1.942962  
     217    1.946849   218    1.953792   219    1.962868  
     220    1.965332   221    1.981869   222    1.988148  
     223    1.995135   224    2.003015   225    2.005773  
     226    2.012770   227    2.019651   228    2.034333  
     229    2.043978   230    2.052676   231    2.061877  
     232    2.072217   233    2.080223   234    2.083157  
     235    2.090150   236    2.112304   237    2.115449  
     238    2.127742   239    2.141785   240    2.144917  
     241    2.152673   242    2.177097   243    2.181782  
     244    2.185098   245    2.188399   246    2.198354  
     247    2.203945   248    2.210015   249    2.216978  
     250    2.218201   251    2.223026   252    2.240642  
     253    2.269600   254    2.278686   255    2.285735  
     256    2.295479   257    2.310768   258    2.323558  
     259    2.332833   260    2.338482   261    2.383286  
     262    2.400746   263    2.418536   264    2.427364  
     265    2.435366   266    2.443985   267    2.453699  
     268    2.481804   269    2.484228   270    2.503174  
     271    2.507963   272    2.525753   273    2.534202  
     274    2.552084   275    2.557215   276    2.577335  
     277    2.588814   278    2.612655   279    2.647365  
     280    2.657197   281    2.694892   282    2.707590  
     283    2.755931   284    2.771964   285    2.778650  
     286    2.793714   287    2.810583   288    2.820152  
     289    2.831412   290    2.836000   291    2.848949  
     292    2.867447   293    2.880794   294    2.915453  
     295    2.943591   296    2.973033   297    3.017828  
     298    3.026309   299    3.048457   300    3.059315  
     301    3.101087   302    3.122413   303    3.132460  
     304    3.135842   305    3.144880   306    3.190360  
     307    3.222910   308    3.252072   309    3.261505  
     310    3.290884   311    3.293866   312    3.411073  
     313    3.449442   314    3.481908   315    3.531536  
     316    3.567581   317    3.588997   318    3.661447  
     319    3.709275   320    3.749107   321    3.869566  
     322    3.889851   323    4.119546   324    4.150194  
     325    4.283920   326    4.309144   327    4.349689  
     328    4.355423   329    4.453547   330    4.523752  
     331    4.593601   332    4.772936   333    4.925144  
     334    5.060965   335    5.103967   336    5.406518  
     337    5.414659   338    5.478524   339    5.507955  
     340    5.574720   341    5.704503   342    6.048342  
     343   17.980171   344   18.129210   345   18.143585  
     346   18.593252   347   18.623727   348   19.267008  
     349   26.477459  

  ==> Frozen Core <==


    ------------------
    Range      A     B
    ------------------
    nbf      358   358
    nmo      349   349
    nocc      24    24
    nvir     325   325
    nfocc      7     7
    naocc     17    17
    navir    325   325
    nfvir      0     0
    ------------------

  ==> Unification <==

  ==> dHF <==

    E ABC(HF) =  -6.8807570655425081E+02 [Eh]
    E AC(0)   =  -3.8090660025666290E+02 [Eh]
    E BC(0)   =  -3.8089220037375890E+02 [Eh]
    E A(0)    =  -2.8268306547144800E+02 [Eh]
    E B(0)    =  -2.8266687863329008E+02 [Eh]
    E AC(HF)  =  -3.8089480896831412E+02 [Eh]
    E BC(HF)  =  -3.8088899856833109E+02 [Eh]
    E AB(HF)  =  -5.6532903618486955E+02 [Eh]
    E A(HF)   =  -2.8266466103489392E+02 [Eh]
    E B(HF)   =  -2.8265429958529984E+02 [Eh]
    E C       =  -7.3718176547062271E+01 [Eh]
    E HF      =   4.9175291087095729E-03 [Eh]

  ==> Electrostatics <==

    Elst10,r            =     0.001684188480 [Eh]

  ==> Exchange <==

    Exch10(S^2)         =     0.004821850093 [Eh]
    Exch10              =     0.004835511122 [Eh]

  ==> Induction <==

    Ind20,u (A<-B)      =    -0.000632866115 [Eh]
    Ind20,u (B<-A)      =    -0.001546753443 [Eh]
    Ind20,u             =    -0.002179619557 [Eh]
    Exch-Ind20,u (A<-B) =     0.000264671878 [Eh]
    Exch-Ind20,u (B<-A) =     0.000978215570 [Eh]
    Exch-Ind20,u        =     0.001242887447 [Eh]

  ==> CPHF Iterations <==

    Maxiter     =         100
    Convergence =   1.000E-08

    -----------------------------------------
    Iter   Monomer A    Monomer B    Time [s]
    -----------------------------------------
    1      2.101E-01    1.491E-01           2
    2      7.074E-02    5.669E-02           4
    3      2.370E-02    1.976E-02           6
    4      1.045E-02    9.974E-03           8
    5      5.489E-03    4.289E-03          10
    6      2.107E-03    1.298E-03          12
    7      6.398E-04    4.262E-04          13
    8      1.430E-04    9.615E-05          15
    9      4.105E-05    3.757E-05          17
    10     1.301E-05    1.649E-05          19
    11     3.370E-06    7.505E-06          21
    12     1.190E-06    2.416E-06          23
    13     5.544E-07    1.026E-06          25
    14     2.298E-07    1.828E-07          27
    15     7.899E-08    7.632E-08          29
    16     1.760E-08    1.811E-08          31
    17     4.252E-09*   6.056E-09*         33
    -----------------------------------------

    Ind20,r (A<-B)      =    -0.000775829962 [Eh]
    Ind20,r (B<-A)      =    -0.001807939788 [Eh]
    Ind20,r             =    -0.002583769750 [Eh]
    Exch-Ind20,r (A<-B) =     0.000338946499 [Eh]
    Exch-Ind20,r (B<-A) =     0.001130042156 [Eh]
    Exch-Ind20,r        =     0.001468988655 [Eh]

  ==> F-SAPT Localization (IBO) <==

  Local Orbitals for Monomer A:

  ==> IBO Localizer 2 <==

    MinAO Basis = CC-PVTZ-MINAO
    Use Ghosts  =       FALSE
    Use Stars   =       FALSE
    Condition   =   1.000E-07
    Power       =           4
    Convergence =   1.000E-12
    Maxiter     =        1000

    @IBO Iter:                   Metric       Gradient
    @IBO    1:   1.6197879886705639E+00   1.473810E+00
    @IBO    2:   1.7414420399486588E+00   8.229414E-01
    @IBO    3:   1.7897860963675702E+00   3.872609E-01
    @IBO    4:   1.7936494404977066E+00   6.196050E-02
    @IBO    5:   1.7936938746022444E+00   6.817786E-04
    @IBO    6:   1.7936938837271497E+00   3.481508E-05
    @IBO    7:   1.7936938838215581E+00   5.629208E-06
    @IBO    8:   1.7936938838248582E+00   1.158660E-06
    @IBO    9:   1.7936938838249965E+00   2.588504E-07
    @IBO   10:   1.7936938838250027E+00   5.925853E-08
    @IBO   11:   1.7936938838250029E+00   1.351782E-08
    @IBO   12:   1.7936938838250032E+00   3.045365E-09
    @IBO   13:   1.7936938838250029E+00   6.765742E-10
    @IBO   14:   1.7936938838250027E+00   1.483839E-10
    @IBO   15:   1.7936938838250029E+00   3.217872E-11
    @IBO   16:   1.7936938838250029E+00   6.911279E-12
    @IBO   17:   1.7936938838250029E+00   1.472168E-12
    @IBO   18:   1.7936938838250029E+00   3.113642E-13

    IBO Localizer 2 converged.

  Local Orbitals for Monomer B:

  ==> IBO Localizer 2 <==

    MinAO Basis = CC-PVTZ-MINAO
    Use Ghosts  =       FALSE
    Use Stars   =       FALSE
    Condition   =   1.000E-07
    Power       =           4
    Convergence =   1.000E-12
    Maxiter     =        1000

    @IBO Iter:                   Metric       Gradient
    @IBO    1:   1.6140294227727321E+00   1.557129E+00
    @IBO    2:   1.7412231527773876E+00   8.854333E-01
    @IBO    3:   1.7894207845366279E+00   4.164404E-01
    @IBO    4:   1.7948791890118099E+00   5.374438E-02
    @IBO    5:   1.7949428212499501E+00   1.282200E-03
    @IBO    6:   1.7949429220440289E+00   2.324282E-04
    @IBO    7:   1.7949429256864304E+00   4.638315E-05
    @IBO    8:   1.7949429258334899E+00   9.374487E-06
    @IBO    9:   1.7949429258394907E+00   1.896564E-06
    @IBO   10:   1.7949429258397376E+00   3.850851E-07
    @IBO   11:   1.7949429258397478E+00   7.846909E-08
    @IBO   12:   1.7949429258397480E+00   1.604976E-08
    @IBO   13:   1.7949429258397487E+00   3.295976E-09
    @IBO   14:   1.7949429258397485E+00   6.798998E-10
    @IBO   15:   1.7949429258397485E+00   1.409657E-10
    @IBO   16:   1.7949429258397485E+00   2.939494E-11
    @IBO   17:   1.7949429258397485E+00   6.168379E-12
    @IBO   18:   1.7949429258397487E+00   1.303135E-12
    @IBO   19:   1.7949429258397485E+00   2.771723E-13

    IBO Localizer 2 converged.

  ==> F-SAPT Electrostatics <==

  DFHelper Memory: AOs need 1.554 GiB; user supplied 10.547 GiB. Using in-core AOs.

  ==> DFHelper <==
    NBF:                             358
    NAux:                           1586
    Schwarz Cutoff:                1E-12
    Mask sparsity (%):                14
    DFH Avail. Memory [GiB]:      10.547
    OpenMP threads:                    1
    Algorithm:                DIRECT_iaQ
    AO Core:                        True
    MO Core:                       False
    Hold Metric:                   False
    Metric Power:                 -0.500
    Fitting Condition:             1E-12
    Q Shell Max:                       7


    Elst10,r            =     0.001684188503 [Eh]

  ==> F-SAPT Exchange <==

    Exch10(S^2)         =     0.004821850093 [Eh]

    Scaling F-SAPT Exch10(S^2) by   1.003E+00 to match Exch10

  ==> F-SAPT Induction <==

    Ind20,u (A<-B)      =    -0.000632866115 [Eh]
    Ind20,u (B<-A)      =    -0.001546753442 [Eh]
    Ind20,u             =    -0.002179619557 [Eh]
    Exch-Ind20,u (A<-B) =     0.000264671878 [Eh]
    Exch-Ind20,u (B<-A) =     0.000978215570 [Eh]
    Exch-Ind20,u        =     0.001242887447 [Eh]

    Scaling for delta HF        =   1.437E+00
    Scaling for response (A<-B) =   1.187E+00
    Scaling for response (B<-A) =   1.192E+00
    Scaling for total (A<-B)    =   1.705E+00
    Scaling for total (B<-A)    =   1.714E+00

  ==> F-SAPT Dispersion <==

  DFHelper Memory: AOs need 1.213 GiB; user supplied 10.541 GiB. Using in-core AOs.

  ==> DFHelper <==
    NBF:                             358
    NAux:                           1236
    Schwarz Cutoff:                1E-12
    Mask sparsity (%):                14
    DFH Avail. Memory [GiB]:      10.541
    OpenMP threads:                    1
    Algorithm:                DIRECT_iaQ
    AO Core:                        True
    MO Core:                       False
    Hold Metric:                   False
    Metric Power:                 -0.500
    Fitting Condition:             1E-12
    Q Shell Max:                       7


    1415577600 doubles - 1587685 overhead leaves 1413989915 for dispersion
    Processing a single (r,s) pair requires 168096 doubles
    325 values of r processed in 1 blocks of 325
    325 values of s processed in 1 blocks of 325

    Disp20              =    -0.003842104779 [Eh]
    Exch-Disp20         =     0.000376347009 [Eh]

  ==> F-SAPT Output <==

    F-SAPT Data Filepath = fsapt/

  ==> Scalar Field Plots <==

    F-SAPT Plot Filepath = plot/

  ==> CubicScalarGrid <==

    Filepath     = plot/
    Total Points =          1271256
    XYZ Blocking =               10
    X Points     =              141
    Y Points     =               98
    Z Points     =               92
    X Spacing    =        2.000E-01
    Y Spacing    =        2.000E-01
    Z Spacing    =        2.000E-01
    X Minimum    =       -1.412E+01
    Y Minimum    =       -9.331E+00
    Z Minimum    =       -8.556E+00
    X Maximum    =        1.388E+01
    Y Maximum    =        1.007E+01
    Z Maximum    =        9.644E+00

  Basis Set: JUN-CC-PVDZ
    Blend: JUN-CC-PVDZ
    Number of shells: 170
    Number of basis functions: 358
    Number of Cartesian functions: 374
    Spherical Harmonics?: true
    Max angular momentum: 2

*********************************************************************************************************************
When computing potential integrals with different bra and ket basis, the atom definition is taken from the bra basis.
*********************************************************************************************************************
*********************************************************************************************************************
When computing potential integrals with different bra and ket basis, the atom definition is taken from the bra basis.
*********************************************************************************************************************
*********************************************************************************************************************
When computing potential integrals with different bra and ket basis, the atom definition is taken from the bra basis.
*********************************************************************************************************************
  ==> Results <==


    SAPT Results  
  --------------------------------------------------------------------------------------------------------
    Electrostatics                  1.68418848 [mEh]       1.05684423 [kcal/mol]       4.42183625 [kJ/mol]
      Elst10,r                      1.68418848 [mEh]       1.05684423 [kcal/mol]       4.42183625 [kJ/mol]

    Exchange                        4.83551112 [mEh]       3.03432904 [kcal/mol]      12.69563270 [kJ/mol]
      Exch10                        4.83551112 [mEh]       3.03432904 [kcal/mol]      12.69563270 [kJ/mol]
      Exch10(S^2)                   4.82185009 [mEh]       3.02575661 [kcal/mol]      12.65976567 [kJ/mol]

    Induction                      -1.60217049 [mEh]      -1.00537716 [kcal/mol]      -4.20649805 [kJ/mol]
      Ind20,r                      -2.58376975 [mEh]      -1.62134000 [kcal/mol]      -6.78368654 [kJ/mol]
      Exch-Ind20,r                  1.46898865 [mEh]       0.92180430 [kcal/mol]       3.85682918 [kJ/mol]
      delta HF,r (2)               -0.48738940 [mEh]      -0.30584147 [kcal/mol]      -1.27964069 [kJ/mol]
      Induction (A<-B)             -0.62789170 [mEh]      -0.39400799 [kcal/mol]      -1.64852942 [kJ/mol]
      Induction (B<-A)             -0.97427880 [mEh]      -0.61136918 [kcal/mol]      -2.55796863 [kJ/mol]

    Dispersion                     -3.46575777 [mEh]      -2.17479583 [kcal/mol]      -9.09934577 [kJ/mol]
      Disp20                       -3.84210478 [mEh]      -2.41095715 [kcal/mol]     -10.08744471 [kJ/mol]
      Exch-Disp20                   0.37634701 [mEh]       0.23616131 [kcal/mol]       0.98809894 [kJ/mol]

  Total HF                          4.91752911 [mEh]       3.08579610 [kcal/mol]      12.91097090 [kJ/mol]
  Total SAPT0                       1.45177134 [mEh]       0.91100027 [kcal/mol]       3.81162513 [kJ/mol]

  --------------------------------------------------------------------------------------------------------
    Han Solo: This is *not* gonna work.
    Luke Skywalker: Why didn't you say so before?
    Han Solo: I *did* say so before.

    Psi4 stopped on: Thursday, 09 November 2023 03:16PM
    Psi4 wall time for execution: 0:13:51.85

*** Psi4 exiting successfully. Buy a developer a beer!
