
    -----------------------------------------------------------------------
          Psi4: An Open-Source Ab Initio Electronic Structure Package
                               Psi4 1.7 release

                         Git: Rev {HEAD} 6ce35a5 


    D. G. A. Smith, L. A. Burns, A. C. Simmonett, R. M. Parrish,
    M. C. Schieber, R. Galvelis, P. Kraus, H. Kruse, R. Di Remigio,
    A. Alenaizan, A. M. James, S. Lehtola, J. P. Misiewicz, M. Scheurer,
    R. A. Shaw, J. B. Schriber, Y. Xie, Z. L. Glick, D. A. Sirianni,
    J. S. O'Brien, J. M. Waldrop, A. Kumar, E. G. Hohenstein,
    B. P. Pritchard, B. R. Brooks, H. F. Schaefer III, A. Yu. Sokolov,
    K. Patkowski, A. E. DePrince III, U. Bozkaya, R. A. King,
    F. A. Evangelista, J. M. Turney, T. D. Crawford, C. D. Sherrill,
    J. Chem. Phys. 152(18) 184108 (2020). https://doi.org/10.1063/5.0006002

                            Additional Code Authors
    E. T. Seidl, C. L. Janssen, E. F. Valeev, M. L. Leininger,
    J. F. Gonthier, R. M. Richard, H. R. McAlexander, M. Saitow, X. Wang,
    P. Verma, M. H. Lechner, A. Jiang, S. Behnle, A. G. Heide,
    M. F. Herbst, and D. L. Poole

             Previous Authors, Complete List of Code Contributors,
                       and Citations for Specific Modules
    https://github.com/psi4/psi4/blob/master/codemeta.json
    https://github.com/psi4/psi4/graphs/contributors
    http://psicode.org/psi4manual/master/introduction.html#citing-psifour

    -----------------------------------------------------------------------


    Psi4 started on: Thursday, 09 November 2023 01:10PM

    Process ID: 1640
    Host:       DESKTOP-D4OA462
    PSIDATADIR: C:\Users\Ivan\.conda\envs\psi4\lib\share\psi4
    Memory:     500.0 MiB
    Threads:    1
    
  ==> Input File <==

--------------------------------------------------------------------------
memory 12000 MiB
mol = psi4.core.Molecule.from_arrays(
    elez=[8,6,6,6,6,6,6,1,1,1,1,1,8,6,6,6,6,6,6,1,1,1,1,1,6,1,1,6,1,1],
    fragment_separators=[12, 24],
    fix_com=True,
    fix_orientation=True,
    fix_symmetry='c1',
    fragment_multiplicities=[2, 2, 1],
    molecular_charge=0,
    molecular_multiplicity=1,
    geom= [
       -1.111583790,      0.117804107,     -1.444639645,
       -1.004331660,     -0.927761371,     -2.304242421,
        0.127353113,     -1.722610697,     -2.451408136,
       -2.130932039,     -1.179842561,     -3.084242612,
        0.121419144,     -2.756528409,     -3.379849294,
       -2.121648941,     -2.212505182,     -4.001818041,
       -0.994059172,     -3.009760878,     -4.158341024,
        1.012625177,     -1.553963487,     -1.853609298,
       -3.000607808,     -0.548194043,     -2.954537465,
        1.008355995,     -3.369512480,     -3.486880921,
       -3.004019155,     -2.395915347,     -4.603483590,
       -0.989191554,     -3.818226068,     -4.877893524,
                                                        
        1.111583790,     -0.117804107,      1.444639645,
        1.004331660,      0.927761371,      2.304242421,
       -0.127353113,      1.722610697,      2.451408136,
        2.130932039,      1.179842561,      3.084242612,
       -0.121419144,      2.756528409,      3.379849294,
        2.121648941,      2.212505182,      4.001818041,
        0.994059172,      3.009760878,      4.158341024,
       -1.012625177,      1.553963487,      1.853609298,
        3.000607808,      0.548194043,      2.954537465,
       -1.008355995,      3.369512480,      3.486880921,
        3.004019155,      2.395915347,      4.603483590,
        0.989191554,      3.818226068,      4.877893524,
                                                        
       -0.019317159,      0.444222139,     -0.616943072,
        0.929143975,      0.382932822,     -1.158293013,
       -0.165214764,      1.485797219,     -0.330080129,
        0.019317159,     -0.444222139,      0.616943072,
       -0.929143975,     -0.382932822,      1.158293013,
        0.165214764,     -1.485797219,      0.330080129])
activate(mol)       
                    
set {               
basis jun-cc-pvdz   
scf_type df
guess sad
freeze_core true
fisapt_do_plot true
}
energy('fisapt0')
--------------------------------------------------------------------------

  Memory set to  11.719 GiB by Python driver.

Scratch directory: C:\Users\Ivan\AppData\Local\Temp/

*** tstart() called on DESKTOP-D4OA462
*** at Thu Nov  9 13:10:02 2023

   => Loading Basis Set <=

    Name: JUN-CC-PVDZ
    Role: ORBITAL
    Keyword: BASIS
    atoms 1, 13                     entry O          line   232 file C:\Users\Ivan\.conda\envs\psi4\lib\share\psi4\basis\jun-cc-pvdz.gbs 
    atoms 2-7, 14-19, 25, 28        entry C          line   164 file C:\Users\Ivan\.conda\envs\psi4\lib\share\psi4\basis\jun-cc-pvdz.gbs 
    atoms 8-12, 20-24, 26-27, 29-30 entry H          line    36 file C:\Users\Ivan\.conda\envs\psi4\lib\share\psi4\basis\jun-cc-pvdz.gbs 


         ---------------------------------------------------------
                                   SCF
               by Justin Turney, Rob Parrish, Andy Simmonett
                          and Daniel G. A. Smith
                              RHF Reference
                        1 Threads,   -288 MiB Core
         ---------------------------------------------------------

  ==> Geometry <==

    Molecular point group: c1
    Full point group: Ci

    Geometry (in Angstrom), charge = 0, multiplicity = 1:

       Center              X                  Y                   Z               Mass       
    ------------   -----------------  -----------------  -----------------  -----------------
         O           -1.111583790000     0.117804107000    -1.444639645000    15.994914619570
         C           -1.004331660000    -0.927761371000    -2.304242421000    12.000000000000
         C            0.127353113000    -1.722610697000    -2.451408136000    12.000000000000
         C           -2.130932039000    -1.179842561000    -3.084242612000    12.000000000000
         C            0.121419144000    -2.756528409000    -3.379849294000    12.000000000000
         C           -2.121648941000    -2.212505182000    -4.001818041000    12.000000000000
         C           -0.994059172000    -3.009760878000    -4.158341024000    12.000000000000
         H            1.012625177000    -1.553963487000    -1.853609298000     1.007825032230
         H           -3.000607808000    -0.548194043000    -2.954537465000     1.007825032230
         H            1.008355995000    -3.369512480000    -3.486880921000     1.007825032230
         H           -3.004019155000    -2.395915347000    -4.603483590000     1.007825032230
         H           -0.989191554000    -3.818226068000    -4.877893524000     1.007825032230
         O            1.111583790000    -0.117804107000     1.444639645000    15.994914619570
         C            1.004331660000     0.927761371000     2.304242421000    12.000000000000
         C           -0.127353113000     1.722610697000     2.451408136000    12.000000000000
         C            2.130932039000     1.179842561000     3.084242612000    12.000000000000
         C           -0.121419144000     2.756528409000     3.379849294000    12.000000000000
         C            2.121648941000     2.212505182000     4.001818041000    12.000000000000
         C            0.994059172000     3.009760878000     4.158341024000    12.000000000000
         H           -1.012625177000     1.553963487000     1.853609298000     1.007825032230
         H            3.000607808000     0.548194043000     2.954537465000     1.007825032230
         H           -1.008355995000     3.369512480000     3.486880921000     1.007825032230
         H            3.004019155000     2.395915347000     4.603483590000     1.007825032230
         H            0.989191554000     3.818226068000     4.877893524000     1.007825032230
         C           -0.019317159000     0.444222139000    -0.616943072000    12.000000000000
         H            0.929143975000     0.382932822000    -1.158293013000     1.007825032230
         H           -0.165214764000     1.485797219000    -0.330080129000     1.007825032230
         C            0.019317159000    -0.444222139000     0.616943072000    12.000000000000
         H           -0.929143975000    -0.382932822000     1.158293013000     1.007825032230
         H            0.165214764000    -1.485797219000     0.330080129000     1.007825032230

  Running in c1 symmetry.

  Rotational constants: A =      0.07008  B =      0.00636  C =      0.00594 [cm^-1]
  Rotational constants: A =   2100.93169  B =    190.76227  C =    178.16290 [MHz]
  Nuclear repulsion =  987.945845432424221

  Charge       = 0
  Multiplicity = 1
  Electrons    = 114
  Nalpha       = 57
  Nbeta        = 57

  ==> Algorithm <==

  SCF Algorithm Type is DF.
  DIIS enabled.
  MOM disabled.
  Fractional occupation disabled.
  Guess Type is SAD.
  Energy threshold   = 1.00e-08
  Density threshold  = 1.00e-08
  Integral threshold = 1.00e-12

  ==> Primary Basis <==

  Basis Set: JUN-CC-PVDZ
    Blend: JUN-CC-PVDZ
    Number of shells: 170
    Number of basis functions: 358
    Number of Cartesian functions: 374
    Spherical Harmonics?: true
    Max angular momentum: 2

   => Loading Basis Set <=

    Name: (JUN-CC-PVDZ AUX)
    Role: JKFIT
    Keyword: DF_BASIS_SCF
    atoms 1, 13                     entry O          line   258 file C:\Users\Ivan\.conda\envs\psi4\lib\share\psi4\basis\jun-cc-pvdz-jkfit.gbs 
    atoms 2-7, 14-19, 25, 28        entry C          line   146 file C:\Users\Ivan\.conda\envs\psi4\lib\share\psi4\basis\jun-cc-pvdz-jkfit.gbs 
    atoms 8-12, 20-24, 26-27, 29-30 entry H          line    70 file C:\Users\Ivan\.conda\envs\psi4\lib\share\psi4\basis\jun-cc-pvdz-jkfit.gbs 

  ==> Integral Setup <==

  DFHelper Memory: AOs need 1.302 GiB; user supplied 8.789 GiB. Using in-core AOs.

  ==> MemDFJK: Density-Fitted J/K Matrices <==

    J tasked:                   Yes
    K tasked:                   Yes
    wK tasked:                   No
    OpenMP threads:               1
    Memory [MiB]:              9000
    Algorithm:                 Core
    Schwarz Cutoff:           1E-12
    Mask sparsity (%):      16.6786
    Fitting Condition:        1E-10

   => Auxiliary Basis Set <=

  Basis Set: (JUN-CC-PVDZ AUX)
    Blend: JUN-CC-PVDZ-JKFIT
    Number of shells: 558
    Number of basis functions: 1586
    Number of Cartesian functions: 1806
    Spherical Harmonics?: true
    Max angular momentum: 3

  Minimum eigenvalue in the overlap matrix is 7.0783091466E-06.
  Reciprocal condition number of the overlap matrix is 5.3733879389E-07.
    Using symmetric orthogonalization.

  ==> Pre-Iterations <==

  SCF Guess: Superposition of Atomic Densities via on-the-fly atomic UHF (no occupation information).

   -------------------------
    Irrep   Nso     Nmo    
   -------------------------
     A        358     358 
   -------------------------
    Total     358     358
   -------------------------

  ==> Iterations <==

                           Total Energy        Delta E     RMS |[F,P]|

   @DF-RHF iter SAD:  -687.63358458747211   -6.87634e+02   0.00000e+00 
   @DF-RHF iter   1:  -687.67325175589599   -3.96672e-02   2.19039e-03 DIIS/ADIIS
   @DF-RHF iter   2:  -688.00664636615272   -3.33395e-01   9.62833e-04 DIIS/ADIIS
   @DF-RHF iter   3:  -688.06850590224883   -6.18595e-02   1.98273e-04 DIIS/ADIIS
   @DF-RHF iter   4:  -688.07248438554575   -3.97848e-03   7.12393e-05 DIIS
   @DF-RHF iter   5:  -688.07284923040584   -3.64845e-04   1.43395e-05 DIIS
   @DF-RHF iter   6:  -688.07287525826450   -2.60279e-05   5.20600e-06 DIIS
   @DF-RHF iter   7:  -688.07287873292319   -3.47466e-06   1.77048e-06 DIIS
   @DF-RHF iter   8:  -688.07287932607517   -5.93152e-07   5.82511e-07 DIIS
   @DF-RHF iter   9:  -688.07287942622429   -1.00149e-07   2.33099e-07 DIIS
   @DF-RHF iter  10:  -688.07287944067639   -1.44521e-08   1.11531e-07 DIIS
   @DF-RHF iter  11:  -688.07287944610232   -5.42593e-09   4.29746e-08 DIIS
   @DF-RHF iter  12:  -688.07287944690108   -7.98764e-10   1.49895e-08 DIIS
   @DF-RHF iter  13:  -688.07287944695349   -5.24096e-11   4.76688e-09 DIIS
  Energy and wave function converged.


  ==> Post-Iterations <==

    Orbital Energies [Eh]
    ---------------------

    Doubly Occupied:                                                      

       1A    -20.598296     2A    -20.598295     3A    -11.310181  
       4A    -11.310181     5A    -11.298842     6A    -11.298213  
       7A    -11.248569     8A    -11.248568     9A    -11.246871  
      10A    -11.246871    11A    -11.240638    12A    -11.240637  
      13A    -11.235454    14A    -11.235454    15A    -11.234370  
      16A    -11.234369    17A     -1.434550    18A     -1.425265  
      19A     -1.160120    20A     -1.158003    21A     -1.060675  
      22A     -1.027650    23A     -1.025634    24A     -1.021223  
      25A     -0.986393    26A     -0.897551    27A     -0.843014  
      28A     -0.840136    29A     -0.818615    30A     -0.805147  
      31A     -0.741951    32A     -0.727347    33A     -0.694278  
      34A     -0.675953    35A     -0.674272    36A     -0.666881  
      37A     -0.647608    38A     -0.636695    39A     -0.618356  
      40A     -0.606485    41A     -0.592425    42A     -0.589118  
      43A     -0.583914    44A     -0.572817    45A     -0.541905  
      46A     -0.525671    47A     -0.520564    48A     -0.519151  
      49A     -0.504150    50A     -0.492664    51A     -0.483542  
      52A     -0.480464    53A     -0.458522    54A     -0.345792  
      55A     -0.345108    56A     -0.320341    57A     -0.313193  

    Virtual:                                                              

      58A      0.057907    59A      0.059224    60A      0.065194  
      61A      0.068694    62A      0.071979    63A      0.075036  
      64A      0.085185    65A      0.087103    66A      0.094540  
      67A      0.103197    68A      0.106245    69A      0.106250  
      70A      0.107197    71A      0.113325    72A      0.115704  
      73A      0.116286    74A      0.120687    75A      0.122457  
      76A      0.125299    77A      0.132662    78A      0.139589  
      79A      0.150863    80A      0.154609    81A      0.159176  
      82A      0.161478    83A      0.164909    84A      0.170379  
      85A      0.170672    86A      0.175565    87A      0.183017  
      88A      0.192534    89A      0.199066    90A      0.199351  
      91A      0.202133    92A      0.204929    93A      0.205427  
      94A      0.211369    95A      0.213133    96A      0.223564  
      97A      0.228321    98A      0.232580    99A      0.251400  
     100A      0.254591   101A      0.254695   102A      0.260308  
     103A      0.265188   104A      0.268996   105A      0.271136  
     106A      0.276085   107A      0.281907   108A      0.285081  
     109A      0.289200   110A      0.290662   111A      0.293850  
     112A      0.296165   113A      0.303445   114A      0.308698  
     115A      0.317948   116A      0.324046   117A      0.327563  
     118A      0.337970   119A      0.348862   120A      0.349000  
     121A      0.350980   122A      0.352946   123A      0.362705  
     124A      0.364420   125A      0.369697   126A      0.373953  
     127A      0.374989   128A      0.378903   129A      0.385060  
     130A      0.390612   131A      0.394966   132A      0.398869  
     133A      0.405852   134A      0.415974   135A      0.427178  
     136A      0.439157   137A      0.443075   138A      0.451198  
     139A      0.457542   140A      0.459741   141A      0.467319  
     142A      0.473391   143A      0.489019   144A      0.497209  
     145A      0.508929   146A      0.514872   147A      0.545843  
     148A      0.549704   149A      0.554343   150A      0.568333  
     151A      0.576288   152A      0.579701   153A      0.606073  
     154A      0.606671   155A      0.690353   156A      0.711749  
     157A      0.748671   158A      0.761706   159A      0.770717  
     160A      0.789322   161A      0.802852   162A      0.815028  
     163A      0.816126   164A      0.822231   165A      0.834382  
     166A      0.836855   167A      0.854354   168A      0.857877  
     169A      0.869879   170A      0.876957   171A      0.877720  
     172A      0.881792   173A      0.896865   174A      0.899265  
     175A      0.905371   176A      0.917049   177A      0.921469  
     178A      0.931642   179A      0.939670   180A      0.941526  
     181A      0.945506   182A      0.951606   183A      0.956826  
     184A      0.961756   185A      0.965101   186A      0.970007  
     187A      0.970800   188A      0.973572   189A      0.981973  
     190A      0.983669   191A      0.989450   192A      0.992092  
     193A      1.001515   194A      1.009925   195A      1.024792  
     196A      1.029236   197A      1.035901   198A      1.053753  
     199A      1.064532   200A      1.092993   201A      1.101845  
     202A      1.111885   203A      1.128995   204A      1.147777  
     205A      1.153449   206A      1.164608   207A      1.164638  
     208A      1.170109   209A      1.187332   210A      1.204515  
     211A      1.208319   212A      1.218777   213A      1.236586  
     214A      1.246013   215A      1.246760   216A      1.252067  
     217A      1.254297   218A      1.258531   219A      1.265322  
     220A      1.267748   221A      1.270921   222A      1.278700  
     223A      1.305256   224A      1.310387   225A      1.318959  
     226A      1.322447   227A      1.331941   228A      1.355030  
     229A      1.358363   230A      1.364213   231A      1.370946  
     232A      1.371853   233A      1.384040   234A      1.418025  
     235A      1.467404   236A      1.499911   237A      1.502830  
     238A      1.510780   239A      1.517538   240A      1.528250  
     241A      1.530800   242A      1.567757   243A      1.646286  
     244A      1.659691   245A      1.700240   246A      1.713952  
     247A      1.718802   248A      1.731695   249A      1.747915  
     250A      1.755947   251A      1.766288   252A      1.766951  
     253A      1.792306   254A      1.799810   255A      1.800389  
     256A      1.804512   257A      1.823267   258A      1.847334  
     259A      1.881863   260A      1.890079   261A      1.906244  
     262A      1.921961   263A      1.923029   264A      1.937437  
     265A      1.940770   266A      1.941153   267A      1.944269  
     268A      1.954315   269A      1.962660   270A      1.963399  
     271A      1.969490   272A      1.980844   273A      1.983211  
     274A      1.984174   275A      1.991029   276A      2.004368  
     277A      2.018843   278A      2.023041   279A      2.038676  
     280A      2.061618   281A      2.066625   282A      2.070243  
     283A      2.072112   284A      2.079626   285A      2.087344  
     286A      2.100866   287A      2.108499   288A      2.114530  
     289A      2.140546   290A      2.144803   291A      2.173084  
     292A      2.175400   293A      2.178245   294A      2.181338  
     295A      2.187082   296A      2.188142   297A      2.200922  
     298A      2.204653   299A      2.221508   300A      2.253048  
     301A      2.266465   302A      2.272406   303A      2.276705  
     304A      2.277775   305A      2.327421   306A      2.337609  
     307A      2.350547   308A      2.396334   309A      2.402046  
     310A      2.415742   311A      2.416422   312A      2.449999  
     313A      2.476851   314A      2.487025   315A      2.501317  
     316A      2.516882   317A      2.521248   318A      2.537815  
     319A      2.553490   320A      2.582807   321A      2.635985  
     322A      2.666470   323A      2.727861   324A      2.762703  
     325A      2.764724   326A      2.800604   327A      2.808142  
     328A      2.817425   329A      2.828377   330A      2.839818  
     331A      2.841401   332A      2.862714   333A      2.864865  
     334A      2.879999   335A      2.896093   336A      3.002253  
     337A      3.008650   338A      3.034611   339A      3.043426  
     340A      3.051737   341A      3.099109   342A      3.100674  
     343A      3.181507   344A      3.185412   345A      3.215476  
     346A      3.285263   347A      3.289982   348A      3.304847  
     349A      3.388882   350A      3.475837   351A      3.536898  
     352A      3.564838   353A      3.738732   354A      3.755230  
     355A      3.866597   356A      3.926940   357A      4.115773  
     358A      4.122383  

    Final Occupation by Irrep:
              A 
    DOCC [    57 ]
    NA   [    57 ]
    NB   [    57 ]

  @DF-RHF Final Energy:  -688.07287944695349

   => Energetics <=

    Nuclear Repulsion Energy =            987.9458454324242211
    One-Electron Energy =               -2895.6195508666287424
    Two-Electron Energy =                1219.6008259872510280
    Total Energy =                       -688.0728794469534932

Computation Completed


Properties will be evaluated at   0.000000,   0.000000,   0.000000 [a0]

Properties computed using the SCF density matrix


 Multipole Moments:

 ------------------------------------------------------------------------------------
     Multipole            Electronic (a.u.)      Nuclear  (a.u.)        Total (a.u.)
 ------------------------------------------------------------------------------------

 L = 1.  Multiply by 2.5417464519 to convert [e a0] to [Debye]
 Dipole X            :         -0.0000000           -0.0000000           -0.0000000
 Dipole Y            :         -0.0000000           -0.0000000           -0.0000000
 Dipole Z            :          0.0000000            0.0000000            0.0000000
 Magnitude           :                                                    0.0000000

 ------------------------------------------------------------------------------------

*** tstop() called on DESKTOP-D4OA462 at Thu Nov  9 13:10:46 2023
Module time:
	user time   =        nan seconds =        nan minutes
	system time =        nan seconds =        nan minutes
	total time  =         44 seconds =       0.73 minutes
Total time:
	user time   =        nan seconds =        nan minutes
	system time =        nan seconds =        nan minutes
	total time  =         44 seconds =       0.73 minutes
  Constructing Basis Sets for FISAPT...

   => Loading Basis Set <=

    Name: (JUN-CC-PVDZ AUX)
    Role: JKFIT
    Keyword: DF_BASIS_SCF
    atoms 1, 13                     entry O          line   258 file C:\Users\Ivan\.conda\envs\psi4\lib\share\psi4\basis\jun-cc-pvdz-jkfit.gbs 
    atoms 2-7, 14-19, 25, 28        entry C          line   146 file C:\Users\Ivan\.conda\envs\psi4\lib\share\psi4\basis\jun-cc-pvdz-jkfit.gbs 
    atoms 8-12, 20-24, 26-27, 29-30 entry H          line    70 file C:\Users\Ivan\.conda\envs\psi4\lib\share\psi4\basis\jun-cc-pvdz-jkfit.gbs 

   => Loading Basis Set <=

    Name: (JUN-CC-PVDZ AUX)
    Role: RIFIT
    Keyword: DF_BASIS_SAPT
    atoms 1, 13                     entry O          line   188 file C:\Users\Ivan\.conda\envs\psi4\lib\share\psi4\basis\jun-cc-pvdz-ri.gbs 
    atoms 2-7, 14-19, 25, 28        entry C          line   100 file C:\Users\Ivan\.conda\envs\psi4\lib\share\psi4\basis\jun-cc-pvdz-ri.gbs 
    atoms 8-12, 20-24, 26-27, 29-30 entry H          line    30 file C:\Users\Ivan\.conda\envs\psi4\lib\share\psi4\basis\jun-cc-pvdz-ri.gbs 

   => Loading Basis Set <=

    Name: CC-PVTZ-MINAO
    Role: ORBITAL
    Keyword: BASIS
    atoms 1, 13                     entry O          line   179 file C:\Users\Ivan\.conda\envs\psi4\lib\share\psi4\basis\cc-pvtz-minao.gbs 
    atoms 2-7, 14-19, 25, 28        entry C          line   119 file C:\Users\Ivan\.conda\envs\psi4\lib\share\psi4\basis\cc-pvtz-minao.gbs 
    atoms 8-12, 20-24, 26-27, 29-30 entry H          line    20 file C:\Users\Ivan\.conda\envs\psi4\lib\share\psi4\basis\cc-pvtz-minao.gbs 

	 --------------------------------------------
	                    FISAPT0                  
	                  Rob Parrish                
	 --------------------------------------------

    Do F-SAPT =         Yes
    Do Plot   =         Yes
    Memory    =      10.547 [GiB]

  ==> Localization (IBO) <==

  ==> IBO Localizer 2 <==

    MinAO Basis = CC-PVTZ-MINAO
    Use Ghosts  =       FALSE
    Use Stars   =       FALSE
    Condition   =   1.000E-07
    Power       =           4
    Convergence =   1.000E-12
    Maxiter     =         200

    @IBO Iter:                   Metric       Gradient
    @IBO    1:   1.1883207968285499E+00   1.553583E+00
    @IBO    2:   2.1370886071603699E+00   1.623747E+00
    @IBO    3:   2.2000822877410409E+00   8.337405E-01
    @IBO    4:   2.2079313413365500E+00   1.410781E-01
    @IBO    5:   2.2080696204640562E+00   2.135101E-03
    @IBO    6:   2.2080696800049293E+00   1.860774E-04
    @IBO    7:   2.2080696813141554E+00   3.699134E-05
    @IBO    8:   2.2080696813679466E+00   7.456248E-06
    @IBO    9:   2.2080696813701990E+00   1.516003E-06
    @IBO   10:   2.2080696813702945E+00   3.095072E-07
    @IBO   11:   2.2080696813702976E+00   6.347981E-08
    @IBO   12:   2.2080696813702976E+00   1.308757E-08
    @IBO   13:   2.2080696813702980E+00   2.713634E-09
    @IBO   14:   2.2080696813702980E+00   5.659485E-10
    @IBO   15:   2.2080696813702980E+00   1.187022E-10
    @IBO   16:   2.2080696813702976E+00   2.502680E-11
    @IBO   17:   2.2080696813702980E+00   5.301010E-12
    @IBO   18:   2.2080696813702980E+00   1.127285E-12
    @IBO   19:   2.2080696813702980E+00   2.405261E-13

    IBO Localizer 2 converged.

  ==> Partitioning <==

   => Atomic Partitioning <= 

    Monomer A:  12 atoms
    Monomer B:  12 atoms
    Monomer C:   6 atoms

   => Link Bond Identification <=

    Link Bond Selection = AUTOMATIC

    Charge Completeness = 0.800

    Total Link Bonds = 2

    --------------------------
    N     Orb Type Aind1 Aind2
    --------------------------
    1      44   BC    13    28
    2      45   AC     1    25
    --------------------------

   => Link Bond Assignment <=

    Link Bond Assignment      = C

   => Partition Summary <=

    Monomer A:  0 charge,  48 protons,  48 electrons,  24 docc
    Monomer B:  0 charge,  48 protons,  48 electrons,  24 docc
    Monomer C:  0 charge,  18 protons,  18 electrons,   9 docc

  ==> Overlap Integrals <==

  ==> Kinetic Integrals <==

  ==> Nuclear Integrals <==

    Nuclear Repulsion Tot:   9.8794584543242445E+02 [Eh]

  ==> Coulomb Integrals <==

  DFHelper Memory: AOs need 1.302 GiB; user supplied 10.544 GiB. Using in-core AOs.

  ==> MemDFJK: Density-Fitted J/K Matrices <==

    J tasked:                   Yes
    K tasked:                   Yes
    wK tasked:                   No
    OpenMP threads:               1
    Memory [MiB]:             10800
    Algorithm:                 Core
    Schwarz Cutoff:           1E-12
    Mask sparsity (%):      16.6786
    Fitting Condition:        1E-10

   => Auxiliary Basis Set <=

  Basis Set: (JUN-CC-PVDZ AUX)
    Blend: JUN-CC-PVDZ-JKFIT
    Number of shells: 558
    Number of basis functions: 1586
    Number of Cartesian functions: 1806
    Spherical Harmonics?: true
    Max angular momentum: 3

  ==> Relaxed SCF Equations <==

  ==> SCF A: <==

    Maxiter =         100
    E Tol   =   1.000E-08
    D Tol   =   1.000E-08

    Max DIIS Vectors = 10

    Iter   N:                        E          dE         |D|
    Iter   1:  -2.9741436687291781E+02  -2.974E+02   4.863E-04 
    Iter   2:  -2.9741800750228026E+02  -3.641E-03   1.921E-05 DIIS
    Iter   3:  -2.9741803974475488E+02  -3.224E-05   6.302E-06 DIIS
    Iter   4:  -2.9741804310979609E+02  -3.365E-06   3.266E-06 DIIS
    Iter   5:  -2.9741804405746774E+02  -9.477E-07   7.107E-07 DIIS
    Iter   6:  -2.9741804415929312E+02  -1.018E-07   3.010E-07 DIIS
    Iter   7:  -2.9741804417665310E+02  -1.736E-08   1.226E-07 DIIS
    Iter   8:  -2.9741804418155306E+02  -4.900E-09   5.571E-08 DIIS
    Iter   9:  -2.9741804418261347E+02  -1.060E-09   2.013E-08 DIIS
    Iter  10:  -2.9741804418275331E+02  -1.398E-10   4.186E-09 DIIS

    FISAPTSCF Converged.

    Final SCF Energy:  -2.9741804418275331E+02 [Eh]

   => Occupied Orbital Energies <=

       1  -20.587096     2  -11.303574     3  -11.243686  
       4  -11.241778     5  -11.234534     6  -11.229470  
       7  -11.229190     8   -1.229875     9   -1.126936  
      10   -1.020619    11   -0.968867    12   -0.832835  
      13   -0.790967    14   -0.689692    15   -0.652175  
      16   -0.617273    17   -0.589145    18   -0.587347  
      19   -0.576525    20   -0.515641    21   -0.492581  
      22   -0.481684    23   -0.340751    24   -0.312388  

   => Virtual Orbital Energies <=

      25    0.027328    26    0.048345    27    0.060006  
      28    0.062498    29    0.065230    30    0.072673  
      31    0.083222    32    0.084973    33    0.090071  
      34    0.096484    35    0.101617    36    0.103813  
      37    0.107247    38    0.113083    39    0.115887  
      40    0.120142    41    0.124810    42    0.126265  
      43    0.129061    44    0.131898    45    0.141061  
      46    0.145123    47    0.151672    48    0.159039  
      49    0.160963    50    0.164829    51    0.170227  
      52    0.170417    53    0.175236    54    0.179706  
      55    0.180291    56    0.185307    57    0.193139  
      58    0.194302    59    0.203621    60    0.208012  
      61    0.210019    62    0.213844    63    0.217661  
      64    0.221801    65    0.228952    66    0.235542  
      67    0.243005    68    0.252149    69    0.256279  
      70    0.259028    71    0.265152    72    0.265945  
      73    0.274224    74    0.276281    75    0.278348  
      76    0.283258    77    0.290044    78    0.290895  
      79    0.293780    80    0.302583    81    0.305778  
      82    0.314456    83    0.329295    84    0.330544  
      85    0.345509    86    0.354389    87    0.357551  
      88    0.369789    89    0.374474    90    0.379077  
      91    0.385918    92    0.388103    93    0.395503  
      94    0.401238    95    0.404923    96    0.417814  
      97    0.428120    98    0.432500    99    0.436640  
     100    0.439995   101    0.446280   102    0.451236  
     103    0.452627   104    0.461064   105    0.466236  
     106    0.474744   107    0.481132   108    0.487169  
     109    0.492423   110    0.500100   111    0.511817  
     112    0.517384   113    0.529964   114    0.540581  
     115    0.547319   116    0.565306   117    0.568207  
     118    0.583195   119    0.591764   120    0.598873  
     121    0.620506   122    0.624501   123    0.637539  
     124    0.644908   125    0.669952   126    0.699651  
     127    0.716743   128    0.736650   129    0.740906  
     130    0.747866   131    0.765606   132    0.786700  
     133    0.796606   134    0.800736   135    0.824155  
     136    0.825743   137    0.834196   138    0.862400  
     139    0.873872   140    0.879210   141    0.885192  
     142    0.904522   143    0.914751   144    0.922268  
     145    0.928271   146    0.934277   147    0.943175  
     148    0.948618   149    0.959923   150    0.967856  
     151    0.971133   152    0.978213   153    0.980742  
     154    0.984672   155    0.985756   156    1.001454  
     157    1.006437   158    1.020939   159    1.040168  
     160    1.045351   161    1.065198   162    1.097813  
     163    1.106237   164    1.126856   165    1.137060  
     166    1.141163   167    1.161106   168    1.164942  
     169    1.185150   170    1.219845   171    1.222635  
     172    1.236858   173    1.246620   174    1.253691  
     175    1.263000   176    1.271860   177    1.277231  
     178    1.288067   179    1.319108   180    1.335841  
     181    1.350239   182    1.364052   183    1.371509  
     184    1.376229   185    1.405224   186    1.479760  
     187    1.515775   188    1.517167   189    1.525139  
     190    1.530140   191    1.626891   192    1.637341  
     193    1.649839   194    1.662771   195    1.699021  
     196    1.718244   197    1.735336   198    1.750782  
     199    1.753929   200    1.759511   201    1.770715  
     202    1.774876   203    1.792958   204    1.795333  
     205    1.799388   206    1.803289   207    1.811931  
     208    1.846369   209    1.855574   210    1.867371  
     211    1.876400   212    1.896786   213    1.905278  
     214    1.908853   215    1.927872   216    1.934981  
     217    1.945566   218    1.951694   219    1.956270  
     220    1.974826   221    1.977630   222    1.984322  
     223    1.990038   224    1.998147   225    2.005228  
     226    2.011800   227    2.024289   228    2.032476  
     229    2.035877   230    2.045253   231    2.053321  
     232    2.066456   233    2.075339   234    2.078552  
     235    2.093079   236    2.111543   237    2.115058  
     238    2.126524   239    2.138468   240    2.141865  
     241    2.149684   242    2.161093   243    2.179705  
     244    2.180273   245    2.187969   246    2.190006  
     247    2.198408   248    2.203056   249    2.205114  
     250    2.222333   251    2.224354   252    2.237638  
     253    2.270423   254    2.280184   255    2.293138  
     256    2.296634   257    2.313383   258    2.320494  
     259    2.332163   260    2.356585   261    2.369321  
     262    2.379893   263    2.410767   264    2.425828  
     265    2.426057   266    2.445009   267    2.447270  
     268    2.470137   269    2.489818   270    2.512697  
     271    2.519167   272    2.527599   273    2.536217  
     274    2.545855   275    2.561052   276    2.567870  
     277    2.584722   278    2.606473   279    2.651111  
     280    2.670129   281    2.691116   282    2.708903  
     283    2.763293   284    2.770219   285    2.788405  
     286    2.802302   287    2.809952   288    2.815794  
     289    2.827329   290    2.843273   291    2.860393  
     292    2.867554   293    2.890528   294    2.915813  
     295    2.932144   296    2.972104   297    3.016841  
     298    3.043855   299    3.057040   300    3.087257  
     301    3.094745   302    3.110990   303    3.116644  
     304    3.127363   305    3.137175   306    3.192623  
     307    3.202645   308    3.244756   309    3.260303  
     310    3.294996   311    3.296717   312    3.404439  
     313    3.439029   314    3.456190   315    3.555592  
     316    3.562504   317    3.571316   318    3.648175  
     319    3.705121   320    3.754318   321    3.855821  
     322    3.905568   323    4.124632   324    4.143290  
     325    4.280457   326    4.305689   327    4.330611  
     328    4.344911   329    4.447621   330    4.525710  
     331    4.568918   332    4.762761   333    4.932689  
     334    5.057169   335    5.098525   336    5.381797  
     337    5.406908   338    5.463806   339    5.478128  
     340    5.556877   341    5.696510   342    6.018164  
     343   17.973237   344   18.124106   345   18.136735  
     346   18.584385   347   18.613645   348   19.262125  
     349   26.458699  

  ==> SCF B: <==

    Maxiter =         100
    E Tol   =   1.000E-08
    D Tol   =   1.000E-08

    Max DIIS Vectors = 10

    Iter   N:                        E          dE         |D|
    Iter   1:  -2.9741436687415478E+02  -2.974E+02   4.863E-04 
    Iter   2:  -2.9741800750351666E+02  -3.641E-03   1.921E-05 DIIS
    Iter   3:  -2.9741803974599134E+02  -3.224E-05   6.302E-06 DIIS
    Iter   4:  -2.9741804311103192E+02  -3.365E-06   3.266E-06 DIIS
    Iter   5:  -2.9741804405870471E+02  -9.477E-07   7.107E-07 DIIS
    Iter   6:  -2.9741804416053020E+02  -1.018E-07   3.010E-07 DIIS
    Iter   7:  -2.9741804417789041E+02  -1.736E-08   1.226E-07 DIIS
    Iter   8:  -2.9741804418279037E+02  -4.900E-09   5.571E-08 DIIS
    Iter   9:  -2.9741804418384987E+02  -1.060E-09   2.013E-08 DIIS
    Iter  10:  -2.9741804418399028E+02  -1.404E-10   4.186E-09 DIIS

    FISAPTSCF Converged.

    Final SCF Energy:  -2.9741804418399028E+02 [Eh]

   => Occupied Orbital Energies <=

       1  -20.587096     2  -11.303574     3  -11.243686  
       4  -11.241778     5  -11.234534     6  -11.229470  
       7  -11.229190     8   -1.229875     9   -1.126936  
      10   -1.020619    11   -0.968867    12   -0.832835  
      13   -0.790967    14   -0.689692    15   -0.652175  
      16   -0.617273    17   -0.589145    18   -0.587347  
      19   -0.576525    20   -0.515641    21   -0.492581  
      22   -0.481684    23   -0.340751    24   -0.312388  

   => Virtual Orbital Energies <=

      25    0.027328    26    0.048345    27    0.060006  
      28    0.062498    29    0.065230    30    0.072673  
      31    0.083222    32    0.084973    33    0.090071  
      34    0.096484    35    0.101617    36    0.103813  
      37    0.107247    38    0.113083    39    0.115887  
      40    0.120142    41    0.124810    42    0.126265  
      43    0.129061    44    0.131898    45    0.141061  
      46    0.145123    47    0.151672    48    0.159039  
      49    0.160963    50    0.164829    51    0.170227  
      52    0.170417    53    0.175236    54    0.179706  
      55    0.180291    56    0.185307    57    0.193139  
      58    0.194302    59    0.203621    60    0.208012  
      61    0.210019    62    0.213844    63    0.217661  
      64    0.221801    65    0.228952    66    0.235542  
      67    0.243005    68    0.252149    69    0.256279  
      70    0.259028    71    0.265152    72    0.265945  
      73    0.274224    74    0.276282    75    0.278348  
      76    0.283258    77    0.290044    78    0.290895  
      79    0.293780    80    0.302583    81    0.305778  
      82    0.314456    83    0.329295    84    0.330544  
      85    0.345509    86    0.354389    87    0.357551  
      88    0.369789    89    0.374474    90    0.379077  
      91    0.385918    92    0.388103    93    0.395502  
      94    0.401238    95    0.404923    96    0.417814  
      97    0.428120    98    0.432500    99    0.436640  
     100    0.439995   101    0.446280   102    0.451236  
     103    0.452627   104    0.461064   105    0.466236  
     106    0.474744   107    0.481132   108    0.487169  
     109    0.492423   110    0.500100   111    0.511817  
     112    0.517384   113    0.529964   114    0.540581  
     115    0.547319   116    0.565306   117    0.568207  
     118    0.583195   119    0.591764   120    0.598873  
     121    0.620506   122    0.624501   123    0.637539  
     124    0.644908   125    0.669952   126    0.699651  
     127    0.716743   128    0.736650   129    0.740906  
     130    0.747866   131    0.765606   132    0.786700  
     133    0.796606   134    0.800736   135    0.824155  
     136    0.825743   137    0.834196   138    0.862400  
     139    0.873872   140    0.879210   141    0.885192  
     142    0.904522   143    0.914751   144    0.922268  
     145    0.928271   146    0.934277   147    0.943175  
     148    0.948618   149    0.959923   150    0.967856  
     151    0.971133   152    0.978213   153    0.980742  
     154    0.984672   155    0.985756   156    1.001454  
     157    1.006437   158    1.020939   159    1.040168  
     160    1.045351   161    1.065198   162    1.097813  
     163    1.106237   164    1.126856   165    1.137060  
     166    1.141163   167    1.161106   168    1.164942  
     169    1.185150   170    1.219845   171    1.222635  
     172    1.236858   173    1.246620   174    1.253691  
     175    1.263000   176    1.271860   177    1.277231  
     178    1.288067   179    1.319108   180    1.335841  
     181    1.350239   182    1.364052   183    1.371509  
     184    1.376229   185    1.405224   186    1.479760  
     187    1.515775   188    1.517167   189    1.525139  
     190    1.530140   191    1.626891   192    1.637341  
     193    1.649839   194    1.662771   195    1.699021  
     196    1.718244   197    1.735336   198    1.750782  
     199    1.753929   200    1.759511   201    1.770715  
     202    1.774876   203    1.792958   204    1.795333  
     205    1.799388   206    1.803289   207    1.811931  
     208    1.846369   209    1.855574   210    1.867371  
     211    1.876400   212    1.896786   213    1.905278  
     214    1.908853   215    1.927872   216    1.934981  
     217    1.945566   218    1.951694   219    1.956270  
     220    1.974826   221    1.977630   222    1.984322  
     223    1.990038   224    1.998147   225    2.005228  
     226    2.011800   227    2.024289   228    2.032476  
     229    2.035877   230    2.045253   231    2.053321  
     232    2.066456   233    2.075339   234    2.078552  
     235    2.093079   236    2.111543   237    2.115058  
     238    2.126524   239    2.138468   240    2.141865  
     241    2.149684   242    2.161093   243    2.179705  
     244    2.180273   245    2.187969   246    2.190006  
     247    2.198408   248    2.203056   249    2.205114  
     250    2.222333   251    2.224354   252    2.237638  
     253    2.270423   254    2.280184   255    2.293138  
     256    2.296634   257    2.313383   258    2.320494  
     259    2.332163   260    2.356585   261    2.369321  
     262    2.379893   263    2.410767   264    2.425828  
     265    2.426057   266    2.445009   267    2.447270  
     268    2.470137   269    2.489818   270    2.512697  
     271    2.519167   272    2.527599   273    2.536217  
     274    2.545855   275    2.561052   276    2.567870  
     277    2.584722   278    2.606473   279    2.651111  
     280    2.670129   281    2.691116   282    2.708903  
     283    2.763293   284    2.770219   285    2.788405  
     286    2.802302   287    2.809952   288    2.815794  
     289    2.827329   290    2.843273   291    2.860393  
     292    2.867554   293    2.890528   294    2.915813  
     295    2.932144   296    2.972104   297    3.016840  
     298    3.043855   299    3.057040   300    3.087257  
     301    3.094745   302    3.110990   303    3.116644  
     304    3.127363   305    3.137175   306    3.192623  
     307    3.202645   308    3.244756   309    3.260303  
     310    3.294996   311    3.296717   312    3.404439  
     313    3.439029   314    3.456190   315    3.555592  
     316    3.562504   317    3.571316   318    3.648175  
     319    3.705121   320    3.754318   321    3.855821  
     322    3.905568   323    4.124632   324    4.143290  
     325    4.280457   326    4.305689   327    4.330611  
     328    4.344911   329    4.447621   330    4.525710  
     331    4.568918   332    4.762761   333    4.932689  
     334    5.057169   335    5.098525   336    5.381797  
     337    5.406908   338    5.463806   339    5.478128  
     340    5.556877   341    5.696510   342    6.018164  
     343   17.973237   344   18.124106   345   18.136735  
     346   18.584385   347   18.613645   348   19.262125  
     349   26.458699  

  ==> Frozen Core <==


    ------------------
    Range      A     B
    ------------------
    nbf      358   358
    nmo      349   349
    nocc      24    24
    nvir     325   325
    nfocc      7     7
    naocc     17    17
    navir    325   325
    nfvir      0     0
    ------------------

  ==> Unification <==

  ==> dHF <==

    E ABC(HF) =  -6.8807287944695349E+02 [Eh]
    E AC(0)   =  -3.8088752985915539E+02 [Eh]
    E BC(0)   =  -3.8088752986035217E+02 [Eh]
    E A(0)    =  -2.8266586526963567E+02 [Eh]
    E B(0)    =  -2.8266586527058121E+02 [Eh]
    E AC(HF)  =  -3.8088385254931984E+02 [Eh]
    E BC(HF)  =  -3.8088385255051639E+02 [Eh]
    E AB(HF)  =  -5.6531440340505492E+02 [Eh]
    E A(HF)   =  -2.8265389639071407E+02 [Eh]
    E B(HF)   =  -2.8265389639168961E+02 [Eh]
    E C       =  -7.3701436275529403E+01 [Eh]
    E HF      =   7.4399702467076168E-04 [Eh]

  ==> Electrostatics <==

    Elst10,r            =     0.000812686506 [Eh]

  ==> Exchange <==

    Exch10(S^2)         =     0.001619882946 [Eh]
    Exch10              =     0.001620034387 [Eh]

  ==> Induction <==

    Ind20,u (A<-B)      =    -0.001692107260 [Eh]
    Ind20,u (B<-A)      =    -0.001692107260 [Eh]
    Ind20,u             =    -0.003384214519 [Eh]
    Exch-Ind20,u (A<-B) =     0.001107742453 [Eh]
    Exch-Ind20,u (B<-A) =     0.001107742453 [Eh]
    Exch-Ind20,u        =     0.002215484906 [Eh]

  ==> CPHF Iterations <==

    Maxiter     =         100
    Convergence =   1.000E-08

    -----------------------------------------
    Iter   Monomer A    Monomer B    Time [s]
    -----------------------------------------
    1      1.137E-01    1.137E-01           2
    2      3.728E-02    3.728E-02           5
    3      1.198E-02    1.198E-02           7
    4      3.541E-03    3.541E-03           9
    5      1.688E-03    1.688E-03          12
    6      5.968E-04    5.968E-04          14
    7      2.875E-04    2.875E-04          16
    8      5.701E-05    5.701E-05          18
    9      1.769E-05    1.769E-05          21
    10     4.806E-06    4.806E-06          23
    11     1.902E-06    1.902E-06          25
    12     4.270E-07    4.270E-07          27
    13     1.997E-07    1.997E-07          30
    14     6.115E-08    6.115E-08          32
    15     2.819E-08    2.819E-08          34
    16     9.923E-09*   9.923E-09*         37
    -----------------------------------------

    Ind20,r (A<-B)      =    -0.001917391208 [Eh]
    Ind20,r (B<-A)      =    -0.001917391208 [Eh]
    Ind20,r             =    -0.003834782415 [Eh]
    Exch-Ind20,r (A<-B) =     0.001243823386 [Eh]
    Exch-Ind20,r (B<-A) =     0.001243823387 [Eh]
    Exch-Ind20,r        =     0.002487646773 [Eh]

  ==> F-SAPT Localization (IBO) <==

  Local Orbitals for Monomer A:

  ==> IBO Localizer 2 <==

    MinAO Basis = CC-PVTZ-MINAO
    Use Ghosts  =       FALSE
    Use Stars   =       FALSE
    Condition   =   1.000E-07
    Power       =           4
    Convergence =   1.000E-12
    Maxiter     =        1000

    @IBO Iter:                   Metric       Gradient
    @IBO    1:   1.6188440835997748E+00   1.618539E+00
    @IBO    2:   1.7505203806135334E+00   7.068590E-01
    @IBO    3:   1.7907000194545468E+00   4.405549E-01
    @IBO    4:   1.7949023449623485E+00   1.081936E-02
    @IBO    5:   1.7949077170340428E+00   4.631768E-04
    @IBO    6:   1.7949077216166618E+00   2.642959E-05
    @IBO    7:   1.7949077216467269E+00   3.573768E-06
    @IBO    8:   1.7949077216474014E+00   5.654788E-07
    @IBO    9:   1.7949077216474225E+00   1.067692E-07
    @IBO   10:   1.7949077216474234E+00   2.318106E-08
    @IBO   11:   1.7949077216474234E+00   5.299051E-09
    @IBO   12:   1.7949077216474234E+00   1.213543E-09
    @IBO   13:   1.7949077216474236E+00   2.742322E-10
    @IBO   14:   1.7949077216474238E+00   6.101852E-11
    @IBO   15:   1.7949077216474236E+00   1.338795E-11
    @IBO   16:   1.7949077216474238E+00   2.902530E-12
    @IBO   17:   1.7949077216474238E+00   6.230018E-13

    IBO Localizer 2 converged.

  Local Orbitals for Monomer B:

  ==> IBO Localizer 2 <==

    MinAO Basis = CC-PVTZ-MINAO
    Use Ghosts  =       FALSE
    Use Stars   =       FALSE
    Condition   =   1.000E-07
    Power       =           4
    Convergence =   1.000E-12
    Maxiter     =        1000

    @IBO Iter:                   Metric       Gradient
    @IBO    1:   1.6188440833682503E+00   1.618539E+00
    @IBO    2:   1.7505203806424250E+00   7.068590E-01
    @IBO    3:   1.7907000194653269E+00   4.405549E-01
    @IBO    4:   1.7949023449656432E+00   1.081936E-02
    @IBO    5:   1.7949077170372736E+00   4.631768E-04
    @IBO    6:   1.7949077216198923E+00   2.642959E-05
    @IBO    7:   1.7949077216499580E+00   3.573768E-06
    @IBO    8:   1.7949077216506326E+00   5.654787E-07
    @IBO    9:   1.7949077216506535E+00   1.067692E-07
    @IBO   10:   1.7949077216506544E+00   2.318106E-08
    @IBO   11:   1.7949077216506546E+00   5.299050E-09
    @IBO   12:   1.7949077216506544E+00   1.213543E-09
    @IBO   13:   1.7949077216506544E+00   2.742322E-10
    @IBO   14:   1.7949077216506546E+00   6.101850E-11
    @IBO   15:   1.7949077216506544E+00   1.338794E-11
    @IBO   16:   1.7949077216506546E+00   2.902527E-12
    @IBO   17:   1.7949077216506546E+00   6.230205E-13

    IBO Localizer 2 converged.

  ==> F-SAPT Electrostatics <==

  DFHelper Memory: AOs need 1.554 GiB; user supplied 10.547 GiB. Using in-core AOs.

  ==> DFHelper <==
    NBF:                             358
    NAux:                           1586
    Schwarz Cutoff:                1E-12
    Mask sparsity (%):                17
    DFH Avail. Memory [GiB]:      10.547
    OpenMP threads:                    1
    Algorithm:                DIRECT_iaQ
    AO Core:                        True
    MO Core:                       False
    Hold Metric:                   False
    Metric Power:                 -0.500
    Fitting Condition:             1E-12
    Q Shell Max:                       7


    Elst10,r            =     0.000812686737 [Eh]

  ==> F-SAPT Exchange <==

    Exch10(S^2)         =     0.001619882946 [Eh]

    Scaling F-SAPT Exch10(S^2) by   1.000E+00 to match Exch10

  ==> F-SAPT Induction <==

    Ind20,u (A<-B)      =    -0.001692107260 [Eh]
    Ind20,u (B<-A)      =    -0.001692107260 [Eh]
    Ind20,u             =    -0.003384214519 [Eh]
    Exch-Ind20,u (A<-B) =     0.001107742453 [Eh]
    Exch-Ind20,u (B<-A) =     0.001107742453 [Eh]
    Exch-Ind20,u        =     0.002215484906 [Eh]

    Scaling for delta HF        =   1.254E+00
    Scaling for response (A<-B) =   1.153E+00
    Scaling for response (B<-A) =   1.153E+00
    Scaling for total (A<-B)    =   1.445E+00
    Scaling for total (B<-A)    =   1.445E+00

  ==> F-SAPT Dispersion <==

  DFHelper Memory: AOs need 1.213 GiB; user supplied 10.541 GiB. Using in-core AOs.

  ==> DFHelper <==
    NBF:                             358
    NAux:                           1236
    Schwarz Cutoff:                1E-12
    Mask sparsity (%):                17
    DFH Avail. Memory [GiB]:      10.541
    OpenMP threads:                    1
    Algorithm:                DIRECT_iaQ
    AO Core:                        True
    MO Core:                       False
    Hold Metric:                   False
    Metric Power:                 -0.500
    Fitting Condition:             1E-12
    Q Shell Max:                       7


    1415577600 doubles - 1587685 overhead leaves 1413989915 for dispersion
    Processing a single (r,s) pair requires 168096 doubles
    325 values of r processed in 1 blocks of 325
    325 values of s processed in 1 blocks of 325

    Disp20              =    -0.001293089790 [Eh]
    Exch-Disp20         =     0.000074003953 [Eh]

  ==> F-SAPT Output <==

    F-SAPT Data Filepath = fsapt/

  ==> Scalar Field Plots <==

    F-SAPT Plot Filepath = plot/

  ==> CubicScalarGrid <==

    Filepath     = plot/
    Total Points =          1497048
    XYZ Blocking =               10
    X Points     =               98
    Y Points     =              114
    Z Points     =              134
    X Spacing    =        2.000E-01
    Y Spacing    =        2.000E-01
    Z Spacing    =        2.000E-01
    X Minimum    =       -9.700E+00
    Y Minimum    =       -1.130E+01
    Z Minimum    =       -1.330E+01
    X Maximum    =        9.700E+00
    Y Maximum    =        1.130E+01
    Z Maximum    =        1.330E+01

  Basis Set: JUN-CC-PVDZ
    Blend: JUN-CC-PVDZ
    Number of shells: 170
    Number of basis functions: 358
    Number of Cartesian functions: 374
    Spherical Harmonics?: true
    Max angular momentum: 2

*********************************************************************************************************************
When computing potential integrals with different bra and ket basis, the atom definition is taken from the bra basis.
*********************************************************************************************************************
*********************************************************************************************************************
When computing potential integrals with different bra and ket basis, the atom definition is taken from the bra basis.
*********************************************************************************************************************
*********************************************************************************************************************
When computing potential integrals with different bra and ket basis, the atom definition is taken from the bra basis.
*********************************************************************************************************************
  ==> Results <==


    SAPT Results  
  --------------------------------------------------------------------------------------------------------
    Electrostatics                  0.81268651 [mEh]       0.50996848 [kcal/mol]       2.13370813 [kJ/mol]
      Elst10,r                      0.81268651 [mEh]       0.50996848 [kcal/mol]       2.13370813 [kJ/mol]

    Exchange                        1.62003439 [mEh]       1.01658693 [kcal/mol]       4.25339970 [kJ/mol]
      Exch10                        1.62003439 [mEh]       1.01658693 [kcal/mol]       4.25339970 [kJ/mol]
      Exch10(S^2)                   1.61988295 [mEh]       1.01649189 [kcal/mol]       4.25300209 [kJ/mol]

    Induction                      -1.68872387 [mEh]      -1.05969023 [kcal/mol]      -4.43374391 [kJ/mol]
      Ind20,r                      -3.83478242 [mEh]      -2.40636230 [kcal/mol]     -10.06821984 [kJ/mol]
      Exch-Ind20,r                  2.48764677 [mEh]       1.56102192 [kcal/mol]       6.53131570 [kJ/mol]
      delta HF,r (2)               -0.34158823 [mEh]      -0.21434985 [kcal/mol]      -0.89683976 [kJ/mol]
      Induction (A<-B)             -0.84436193 [mEh]      -0.52984511 [kcal/mol]      -2.21687195 [kJ/mol]
      Induction (B<-A)             -0.84436193 [mEh]      -0.52984511 [kcal/mol]      -2.21687195 [kJ/mol]

    Dispersion                     -1.21908584 [mEh]      -0.76498791 [kcal/mol]      -3.20070942 [kJ/mol]
      Disp20                       -1.29308979 [mEh]      -0.81142609 [kcal/mol]      -3.39500677 [kJ/mol]
      Exch-Disp20                   0.07400395 [mEh]       0.04643818 [kcal/mol]       0.19429735 [kJ/mol]

  Total HF                          0.74399702 [mEh]       0.46686518 [kcal/mol]       1.95336392 [kJ/mol]
  Total SAPT0                      -0.47508881 [mEh]      -0.29812273 [kcal/mol]      -1.24734550 [kJ/mol]

  --------------------------------------------------------------------------------------------------------
    Han Solo: This is *not* gonna work.
    Luke Skywalker: Why didn't you say so before?
    Han Solo: I *did* say so before.

    Psi4 stopped on: Thursday, 09 November 2023 01:28PM
    Psi4 wall time for execution: 0:18:53.25

*** Psi4 exiting successfully. Buy a developer a beer!
