
    -----------------------------------------------------------------------
          Psi4: An Open-Source Ab Initio Electronic Structure Package
                               Psi4 1.7 release

                         Git: Rev {HEAD} 6ce35a5 


    D. G. A. Smith, L. A. Burns, A. C. Simmonett, R. M. Parrish,
    M. C. Schieber, R. Galvelis, P. Kraus, H. Kruse, R. Di Remigio,
    A. Alenaizan, A. M. James, S. Lehtola, J. P. Misiewicz, M. Scheurer,
    R. A. Shaw, J. B. Schriber, Y. Xie, Z. L. Glick, D. A. Sirianni,
    J. S. O'Brien, J. M. Waldrop, A. Kumar, E. G. Hohenstein,
    B. P. Pritchard, B. R. Brooks, H. F. Schaefer III, A. Yu. Sokolov,
    K. Patkowski, A. E. DePrince III, U. Bozkaya, R. A. King,
    F. A. Evangelista, J. M. Turney, T. D. Crawford, C. D. Sherrill,
    J. Chem. Phys. 152(18) 184108 (2020). https://doi.org/10.1063/5.0006002

                            Additional Code Authors
    E. T. Seidl, C. L. Janssen, E. F. Valeev, M. L. Leininger,
    J. F. Gonthier, R. M. Richard, H. R. McAlexander, M. Saitow, X. Wang,
    P. Verma, M. H. Lechner, A. Jiang, S. Behnle, A. G. Heide,
    M. F. Herbst, and D. L. Poole

             Previous Authors, Complete List of Code Contributors,
                       and Citations for Specific Modules
    https://github.com/psi4/psi4/blob/master/codemeta.json
    https://github.com/psi4/psi4/graphs/contributors
    http://psicode.org/psi4manual/master/introduction.html#citing-psifour

    -----------------------------------------------------------------------


    Psi4 started on: Thursday, 09 November 2023 01:28PM

    Process ID: 13448
    Host:       DESKTOP-D4OA462
    PSIDATADIR: C:\Users\Ivan\.conda\envs\psi4\lib\share\psi4
    Memory:     500.0 MiB
    Threads:    1
    
  ==> Input File <==

--------------------------------------------------------------------------
memory 12000 MiB
mol = psi4.core.Molecule.from_arrays(
    elez=[8,6,6,6,6,6,6,1,1,1,1,1,8,6,6,6,6,6,6,1,1,1,1,1,6,1,1,6,1,1],
    fragment_separators=[12, 24],
    fix_com=True,
    fix_orientation=True,
    fix_symmetry='c1',
    fragment_multiplicities=[2, 2, 1],
    molecular_charge=0,
    molecular_multiplicity=1,
    geom= [
       -1.649929407,      1.832406192,      0.301725151,
       -2.062775796,      0.587381274,     -0.052440886,
       -1.349770662,     -0.585644127,      0.164063310,
       -3.308716998,      0.532905280,     -0.673718107,
       -1.893363230,     -1.798822283,     -0.238008653,
       -3.834505768,     -0.681492762,     -1.071374715,
       -3.131247425,     -1.859947766,     -0.854263515,
       -0.369082018,     -0.578774545,      0.616010831,
       -3.846536160,      1.458853953,     -0.833740102,
       -1.324570538,     -2.705365317,     -0.068702293,
       -4.804221061,     -0.707613824,     -1.553633521,
       -3.542700266,     -2.811216267,     -1.166185615,
                                                        
        1.136200990,      1.307976107,     -0.730608808,
        1.902537691,      0.325980318,     -0.199049409,
        2.188989539,     -0.738956756,     -1.051903195,
        2.397116937,      0.318267552,      1.101567142,
        2.966653086,     -1.791144863,     -0.610004903,
        3.178215592,     -0.748942903,      1.531475779,
        3.468381267,     -1.805234744,      0.686962327,
        1.783604228,     -0.717064019,     -2.055073245,
        2.185595779,      1.126770338,      1.787092857,
        3.182274336,     -2.611393686,     -1.284303130,
        3.558843323,     -0.745099012,      2.545748402,
        4.075515234,     -2.632434131,      1.031826738,
                                                        
       -0.445815177,      2.017199207,      1.009320366,
       -0.616501796,      2.872908487,      1.668549989,
       -0.219110058,      1.155359727,      1.640369164,
        0.707077592,      2.368965050,      0.091802896,
        0.376154218,      3.145561041,     -0.598557595,
        1.539361611,      2.773846931,      0.678250900])
activate(mol)       
                    
set {               
basis jun-cc-pvdz   
scf_type df
guess sad
freeze_core true
fisapt_do_plot true
}
energy('fisapt0')
--------------------------------------------------------------------------

  Memory set to  11.719 GiB by Python driver.

Scratch directory: C:\Users\Ivan\AppData\Local\Temp/

*** tstart() called on DESKTOP-D4OA462
*** at Thu Nov  9 13:28:58 2023

   => Loading Basis Set <=

    Name: JUN-CC-PVDZ
    Role: ORBITAL
    Keyword: BASIS
    atoms 1, 13                     entry O          line   232 file C:\Users\Ivan\.conda\envs\psi4\lib\share\psi4\basis\jun-cc-pvdz.gbs 
    atoms 2-7, 14-19, 25, 28        entry C          line   164 file C:\Users\Ivan\.conda\envs\psi4\lib\share\psi4\basis\jun-cc-pvdz.gbs 
    atoms 8-12, 20-24, 26-27, 29-30 entry H          line    36 file C:\Users\Ivan\.conda\envs\psi4\lib\share\psi4\basis\jun-cc-pvdz.gbs 


         ---------------------------------------------------------
                                   SCF
               by Justin Turney, Rob Parrish, Andy Simmonett
                          and Daniel G. A. Smith
                              RHF Reference
                        1 Threads,   -288 MiB Core
         ---------------------------------------------------------

  ==> Geometry <==

    Molecular point group: c1
    Full point group: C1

    Geometry (in Angstrom), charge = 0, multiplicity = 1:

       Center              X                  Y                   Z               Mass       
    ------------   -----------------  -----------------  -----------------  -----------------
         O           -1.649929407000     1.832406192000     0.301725151000    15.994914619570
         C           -2.062775796000     0.587381274000    -0.052440886000    12.000000000000
         C           -1.349770662000    -0.585644127000     0.164063310000    12.000000000000
         C           -3.308716998000     0.532905280000    -0.673718107000    12.000000000000
         C           -1.893363230000    -1.798822283000    -0.238008653000    12.000000000000
         C           -3.834505768000    -0.681492762000    -1.071374715000    12.000000000000
         C           -3.131247425000    -1.859947766000    -0.854263515000    12.000000000000
         H           -0.369082018000    -0.578774545000     0.616010831000     1.007825032230
         H           -3.846536160000     1.458853953000    -0.833740102000     1.007825032230
         H           -1.324570538000    -2.705365317000    -0.068702293000     1.007825032230
         H           -4.804221061000    -0.707613824000    -1.553633521000     1.007825032230
         H           -3.542700266000    -2.811216267000    -1.166185615000     1.007825032230
         O            1.136200990000     1.307976107000    -0.730608808000    15.994914619570
         C            1.902537691000     0.325980318000    -0.199049409000    12.000000000000
         C            2.188989539000    -0.738956756000    -1.051903195000    12.000000000000
         C            2.397116937000     0.318267552000     1.101567142000    12.000000000000
         C            2.966653086000    -1.791144863000    -0.610004903000    12.000000000000
         C            3.178215592000    -0.748942903000     1.531475779000    12.000000000000
         C            3.468381267000    -1.805234744000     0.686962327000    12.000000000000
         H            1.783604228000    -0.717064019000    -2.055073245000     1.007825032230
         H            2.185595779000     1.126770338000     1.787092857000     1.007825032230
         H            3.182274336000    -2.611393686000    -1.284303130000     1.007825032230
         H            3.558843323000    -0.745099012000     2.545748402000     1.007825032230
         H            4.075515234000    -2.632434131000     1.031826738000     1.007825032230
         C           -0.445815177000     2.017199207000     1.009320366000    12.000000000000
         H           -0.616501796000     2.872908487000     1.668549989000     1.007825032230
         H           -0.219110058000     1.155359727000     1.640369164000     1.007825032230
         C            0.707077592000     2.368965050000     0.091802896000    12.000000000000
         H            0.376154218000     3.145561041000    -0.598557595000     1.007825032230
         H            1.539361611000     2.773846931000     0.678250900000     1.007825032230

  Running in c1 symmetry.

  Rotational constants: A =      0.02989  B =      0.01207  C =      0.00964 [cm^-1]
  Rotational constants: A =    895.99596  B =    361.99638  C =    288.97202 [MHz]
  Nuclear repulsion = 1047.242414701673397

  Charge       = 0
  Multiplicity = 1
  Electrons    = 114
  Nalpha       = 57
  Nbeta        = 57

  ==> Algorithm <==

  SCF Algorithm Type is DF.
  DIIS enabled.
  MOM disabled.
  Fractional occupation disabled.
  Guess Type is SAD.
  Energy threshold   = 1.00e-08
  Density threshold  = 1.00e-08
  Integral threshold = 1.00e-12

  ==> Primary Basis <==

  Basis Set: JUN-CC-PVDZ
    Blend: JUN-CC-PVDZ
    Number of shells: 170
    Number of basis functions: 358
    Number of Cartesian functions: 374
    Spherical Harmonics?: true
    Max angular momentum: 2

   => Loading Basis Set <=

    Name: (JUN-CC-PVDZ AUX)
    Role: JKFIT
    Keyword: DF_BASIS_SCF
    atoms 1, 13                     entry O          line   258 file C:\Users\Ivan\.conda\envs\psi4\lib\share\psi4\basis\jun-cc-pvdz-jkfit.gbs 
    atoms 2-7, 14-19, 25, 28        entry C          line   146 file C:\Users\Ivan\.conda\envs\psi4\lib\share\psi4\basis\jun-cc-pvdz-jkfit.gbs 
    atoms 8-12, 20-24, 26-27, 29-30 entry H          line    70 file C:\Users\Ivan\.conda\envs\psi4\lib\share\psi4\basis\jun-cc-pvdz-jkfit.gbs 

  ==> Integral Setup <==

  DFHelper Memory: AOs need 1.406 GiB; user supplied 8.789 GiB. Using in-core AOs.

  ==> MemDFJK: Density-Fitted J/K Matrices <==

    J tasked:                   Yes
    K tasked:                   Yes
    wK tasked:                   No
    OpenMP threads:               1
    Memory [MiB]:              9000
    Algorithm:                 Core
    Schwarz Cutoff:           1E-12
    Mask sparsity (%):       9.7672
    Fitting Condition:        1E-10

   => Auxiliary Basis Set <=

  Basis Set: (JUN-CC-PVDZ AUX)
    Blend: JUN-CC-PVDZ-JKFIT
    Number of shells: 558
    Number of basis functions: 1586
    Number of Cartesian functions: 1806
    Spherical Harmonics?: true
    Max angular momentum: 3

  Minimum eigenvalue in the overlap matrix is 5.9794038192E-06.
  Reciprocal condition number of the overlap matrix is 3.9257740768E-07.
    Using symmetric orthogonalization.

  ==> Pre-Iterations <==

  SCF Guess: Superposition of Atomic Densities via on-the-fly atomic UHF (no occupation information).

   -------------------------
    Irrep   Nso     Nmo    
   -------------------------
     A        358     358 
   -------------------------
    Total     358     358
   -------------------------

  ==> Iterations <==

                           Total Energy        Delta E     RMS |[F,P]|

   @DF-RHF iter SAD:  -687.67747474445719   -6.87677e+02   0.00000e+00 
   @DF-RHF iter   1:  -687.66391342266775    1.35613e-02   2.20560e-03 DIIS/ADIIS
   @DF-RHF iter   2:  -688.00321732194027   -3.39304e-01   9.69334e-04 DIIS/ADIIS
   @DF-RHF iter   3:  -688.06591404116637   -6.26967e-02   1.93213e-04 DIIS/ADIIS
   @DF-RHF iter   4:  -688.06988297104385   -3.96893e-03   5.99488e-05 DIIS
   @DF-RHF iter   5:  -688.07015489134028   -2.71920e-04   1.60825e-05 DIIS
   @DF-RHF iter   6:  -688.07018464482883   -2.97535e-05   5.43841e-06 DIIS
   @DF-RHF iter   7:  -688.07018832896847   -3.68414e-06   1.84614e-06 DIIS
   @DF-RHF iter   8:  -688.07018894119210   -6.12224e-07   6.65956e-07 DIIS
   @DF-RHF iter   9:  -688.07018904835581   -1.07164e-07   2.89088e-07 DIIS
   @DF-RHF iter  10:  -688.07018906658266   -1.82268e-08   1.18750e-07 DIIS
   @DF-RHF iter  11:  -688.07018907280053   -6.21787e-09   5.09117e-08 DIIS
   @DF-RHF iter  12:  -688.07018907390454   -1.10401e-09   1.90284e-08 DIIS
   @DF-RHF iter  13:  -688.07018907400152   -9.69749e-11   5.45130e-09 DIIS
  Energy and wave function converged.


  ==> Post-Iterations <==

    Orbital Energies [Eh]
    ---------------------

    Doubly Occupied:                                                      

       1A    -20.596285     2A    -20.590081     3A    -11.311055  
       4A    -11.301424     5A    -11.301047     6A    -11.300368  
       7A    -11.251430     8A    -11.248834     9A    -11.243608  
      10A    -11.238666    11A    -11.238270    12A    -11.236823  
      13A    -11.236342    14A    -11.228973    15A    -11.226852  
      16A    -11.225848    17A     -1.434234    18A     -1.417021  
      19A     -1.161187    20A     -1.150169    21A     -1.061763  
      22A     -1.028567    23A     -1.020544    24A     -1.015157  
      25A     -0.985517    26A     -0.896483    27A     -0.843522  
      28A     -0.832954    29A     -0.819016    30A     -0.797233  
      31A     -0.737878    32A     -0.724907    33A     -0.685566  
      34A     -0.683410    35A     -0.671457    36A     -0.662069  
      37A     -0.655342    38A     -0.624758    39A     -0.618380  
      40A     -0.597632    41A     -0.588544    42A     -0.587531  
      43A     -0.584938    44A     -0.568349    45A     -0.531316  
      46A     -0.526415    47A     -0.521723    48A     -0.511566  
      49A     -0.508872    50A     -0.486306    51A     -0.482879  
      52A     -0.476282    53A     -0.455407    54A     -0.348685  
      55A     -0.335547    56A     -0.318860    57A     -0.306815  

    Virtual:                                                              

      58A      0.052615    59A      0.060187    60A      0.065527  
      61A      0.066907    62A      0.077333    63A      0.079529  
      64A      0.084370    65A      0.090718    66A      0.096686  
      67A      0.101200    68A      0.103576    69A      0.105077  
      70A      0.112577    71A      0.113371    72A      0.120792  
      73A      0.122202    74A      0.126654    75A      0.130381  
      76A      0.132688    77A      0.134701    78A      0.140807  
      79A      0.144208    80A      0.154868    81A      0.161104  
      82A      0.164009    83A      0.170707    84A      0.174093  
      85A      0.180229    86A      0.187888    87A      0.191533  
      88A      0.198174    89A      0.198807    90A      0.203707  
      91A      0.209101    92A      0.210997    93A      0.213582  
      94A      0.219452    95A      0.227729    96A      0.229573  
      97A      0.234146    98A      0.236077    99A      0.240579  
     100A      0.250572   101A      0.259696   102A      0.262254  
     103A      0.269172   104A      0.270151   105A      0.274177  
     106A      0.279958   107A      0.283233   108A      0.286871  
     109A      0.289241   110A      0.295140   111A      0.300245  
     112A      0.304832   113A      0.306957   114A      0.308454  
     115A      0.316279   116A      0.320824   117A      0.329838  
     118A      0.336584   119A      0.345399   120A      0.353246  
     121A      0.360103   122A      0.362999   123A      0.368355  
     124A      0.371758   125A      0.377096   126A      0.387382  
     127A      0.389773   128A      0.395095   129A      0.396648  
     130A      0.402679   131A      0.405996   132A      0.413964  
     133A      0.425571   134A      0.431708   135A      0.436065  
     136A      0.439242   137A      0.443567   138A      0.454010  
     139A      0.471168   140A      0.473066   141A      0.478193  
     142A      0.480253   143A      0.496456   144A      0.503991  
     145A      0.515850   146A      0.519507   147A      0.537303  
     148A      0.550852   149A      0.562239   150A      0.575747  
     151A      0.583036   152A      0.592017   153A      0.613262  
     154A      0.624525   155A      0.710983   156A      0.735350  
     157A      0.757962   158A      0.766085   159A      0.781501  
     160A      0.796937   161A      0.811155   162A      0.822306  
     163A      0.825285   164A      0.838725   165A      0.841721  
     166A      0.858170   167A      0.863885   168A      0.873084  
     169A      0.875181   170A      0.885857   171A      0.890844  
     172A      0.900926   173A      0.907103   174A      0.912516  
     175A      0.917665   176A      0.921420   177A      0.932517  
     178A      0.935646   179A      0.944186   180A      0.951761  
     181A      0.955755   182A      0.962914   183A      0.964860  
     184A      0.967561   185A      0.972720   186A      0.980049  
     187A      0.981344   188A      0.986339   189A      0.992132  
     190A      0.999935   191A      1.001827   192A      1.008819  
     193A      1.017286   194A      1.018180   195A      1.027575  
     196A      1.027774   197A      1.048136   198A      1.056206  
     199A      1.077902   200A      1.079301   201A      1.094194  
     202A      1.114100   203A      1.127275   204A      1.150568  
     205A      1.155461   206A      1.161008   207A      1.171090  
     208A      1.177438   209A      1.183630   210A      1.212764  
     211A      1.217696   212A      1.231676   213A      1.238196  
     214A      1.242550   215A      1.253723   216A      1.265578  
     217A      1.267917   218A      1.270730   219A      1.273736  
     220A      1.278018   221A      1.286965   222A      1.295233  
     223A      1.314948   224A      1.321069   225A      1.333249  
     226A      1.341531   227A      1.351491   228A      1.361836  
     229A      1.366928   230A      1.387802   231A      1.395707  
     232A      1.407270   233A      1.417693   234A      1.423212  
     235A      1.489619   236A      1.504809   237A      1.516074  
     238A      1.521474   239A      1.533547   240A      1.556993  
     241A      1.569199   242A      1.599634   243A      1.668274  
     244A      1.688833   245A      1.699825   246A      1.709955  
     247A      1.729538   248A      1.742718   249A      1.762384  
     250A      1.767887   251A      1.775117   252A      1.781998  
     253A      1.791495   254A      1.798585   255A      1.811025  
     256A      1.833203   257A      1.852611   258A      1.862634  
     259A      1.898398   260A      1.915926   261A      1.921714  
     262A      1.923188   263A      1.931448   264A      1.939574  
     265A      1.947627   266A      1.954028   267A      1.957021  
     268A      1.961055   269A      1.970289   270A      1.972926  
     271A      1.974343   272A      1.991842   273A      1.994560  
     274A      2.004209   275A      2.011607   276A      2.018053  
     277A      2.036685   278A      2.041821   279A      2.042586  
     280A      2.057049   281A      2.066772   282A      2.075803  
     283A      2.080623   284A      2.086881   285A      2.094684  
     286A      2.102739   287A      2.110230   288A      2.136400  
     289A      2.142864   290A      2.160440   291A      2.173614  
     292A      2.177480   293A      2.184807   294A      2.186794  
     295A      2.193040   296A      2.195718   297A      2.206287  
     298A      2.215295   299A      2.219596   300A      2.241873  
     301A      2.259901   302A      2.271269   303A      2.281157  
     304A      2.298090   305A      2.315014   306A      2.324345  
     307A      2.348958   308A      2.396407   309A      2.411853  
     310A      2.424518   311A      2.432214   312A      2.442868  
     313A      2.489488   314A      2.494288   315A      2.505938  
     316A      2.518501   317A      2.520457   318A      2.560303  
     319A      2.580825   320A      2.598176   321A      2.645452  
     322A      2.658457   323A      2.745882   324A      2.774007  
     325A      2.781056   326A      2.799401   327A      2.809571  
     328A      2.821239   329A      2.828972   330A      2.834327  
     331A      2.844972   332A      2.859904   333A      2.872924  
     334A      2.903719   335A      2.932377   336A      2.980418  
     337A      3.013324   338A      3.034313   339A      3.056792  
     340A      3.066608   341A      3.097655   342A      3.111379  
     343A      3.186935   344A      3.203749   345A      3.253345  
     346A      3.278212   347A      3.289256   348A      3.308796  
     349A      3.446928   350A      3.461482   351A      3.533208  
     352A      3.555731   353A      3.744874   354A      3.754845  
     355A      3.880166   356A      3.915217   357A      4.120007  
     358A      4.134048  

    Final Occupation by Irrep:
              A 
    DOCC [    57 ]
    NA   [    57 ]
    NB   [    57 ]

  @DF-RHF Final Energy:  -688.07018907400152

   => Energetics <=

    Nuclear Repulsion Energy =           1047.2424147016733968
    One-Electron Energy =               -3014.5437935845811808
    Two-Electron Energy =                1279.2311898089062652
    Total Energy =                       -688.0701890740015187

Computation Completed


Properties will be evaluated at   0.000000,   0.000000,   0.000000 [a0]

Properties computed using the SCF density matrix


 Multipole Moments:

 ------------------------------------------------------------------------------------
     Multipole            Electronic (a.u.)      Nuclear  (a.u.)        Total (a.u.)
 ------------------------------------------------------------------------------------

 L = 1.  Multiply by 2.5417464519 to convert [e a0] to [Debye]
 Dipole X            :         -4.3287832            4.8480156            0.5192324
 Dipole Y            :         -1.7761957            1.8717226            0.0955269
 Dipole Z            :          4.4209019           -3.8112852            0.6096168
 Magnitude           :                                                    0.8064492

 ------------------------------------------------------------------------------------

*** tstop() called on DESKTOP-D4OA462 at Thu Nov  9 13:29:56 2023
Module time:
	user time   =        nan seconds =        nan minutes
	system time =        nan seconds =        nan minutes
	total time  =         58 seconds =       0.97 minutes
Total time:
	user time   =        nan seconds =        nan minutes
	system time =        nan seconds =        nan minutes
	total time  =         58 seconds =       0.97 minutes
  Constructing Basis Sets for FISAPT...

   => Loading Basis Set <=

    Name: (JUN-CC-PVDZ AUX)
    Role: JKFIT
    Keyword: DF_BASIS_SCF
    atoms 1, 13                     entry O          line   258 file C:\Users\Ivan\.conda\envs\psi4\lib\share\psi4\basis\jun-cc-pvdz-jkfit.gbs 
    atoms 2-7, 14-19, 25, 28        entry C          line   146 file C:\Users\Ivan\.conda\envs\psi4\lib\share\psi4\basis\jun-cc-pvdz-jkfit.gbs 
    atoms 8-12, 20-24, 26-27, 29-30 entry H          line    70 file C:\Users\Ivan\.conda\envs\psi4\lib\share\psi4\basis\jun-cc-pvdz-jkfit.gbs 

   => Loading Basis Set <=

    Name: (JUN-CC-PVDZ AUX)
    Role: RIFIT
    Keyword: DF_BASIS_SAPT
    atoms 1, 13                     entry O          line   188 file C:\Users\Ivan\.conda\envs\psi4\lib\share\psi4\basis\jun-cc-pvdz-ri.gbs 
    atoms 2-7, 14-19, 25, 28        entry C          line   100 file C:\Users\Ivan\.conda\envs\psi4\lib\share\psi4\basis\jun-cc-pvdz-ri.gbs 
    atoms 8-12, 20-24, 26-27, 29-30 entry H          line    30 file C:\Users\Ivan\.conda\envs\psi4\lib\share\psi4\basis\jun-cc-pvdz-ri.gbs 

   => Loading Basis Set <=

    Name: CC-PVTZ-MINAO
    Role: ORBITAL
    Keyword: BASIS
    atoms 1, 13                     entry O          line   179 file C:\Users\Ivan\.conda\envs\psi4\lib\share\psi4\basis\cc-pvtz-minao.gbs 
    atoms 2-7, 14-19, 25, 28        entry C          line   119 file C:\Users\Ivan\.conda\envs\psi4\lib\share\psi4\basis\cc-pvtz-minao.gbs 
    atoms 8-12, 20-24, 26-27, 29-30 entry H          line    20 file C:\Users\Ivan\.conda\envs\psi4\lib\share\psi4\basis\cc-pvtz-minao.gbs 

	 --------------------------------------------
	                    FISAPT0                  
	                  Rob Parrish                
	 --------------------------------------------

    Do F-SAPT =         Yes
    Do Plot   =         Yes
    Memory    =      10.547 [GiB]

  ==> Localization (IBO) <==

  ==> IBO Localizer 2 <==

    MinAO Basis = CC-PVTZ-MINAO
    Use Ghosts  =       FALSE
    Use Stars   =       FALSE
    Condition   =   1.000E-07
    Power       =           4
    Convergence =   1.000E-12
    Maxiter     =         200

    @IBO Iter:                   Metric       Gradient
    @IBO    1:   1.9325636504253165E+00   2.199072E+00
    @IBO    2:   2.1412308951819381E+00   1.335535E+00
    @IBO    3:   2.1981500886956185E+00   9.026648E-01
    @IBO    4:   2.2074261685941998E+00   2.545012E-01
    @IBO    5:   2.2078367881571066E+00   3.065690E-03
    @IBO    6:   2.2078368608031100E+00   1.903888E-04
    @IBO    7:   2.2078368617933659E+00   3.739850E-05
    @IBO    8:   2.2078368618336808E+00   7.518121E-06
    @IBO    9:   2.2078368618353581E+00   1.515375E-06
    @IBO   10:   2.2078368618354278E+00   3.053600E-07
    @IBO   11:   2.2078368618354309E+00   6.155408E-08
    @IBO   12:   2.2078368618354309E+00   1.242532E-08
    @IBO   13:   2.2078368618354305E+00   2.514035E-09
    @IBO   14:   2.2078368618354309E+00   5.101926E-10
    @IBO   15:   2.2078368618354309E+00   1.038874E-10
    @IBO   16:   2.2078368618354309E+00   2.122868E-11
    @IBO   17:   2.2078368618354305E+00   4.353142E-12
    @IBO   18:   2.2078368618354305E+00   8.956124E-13

    IBO Localizer 2 converged.

  ==> Partitioning <==

   => Atomic Partitioning <= 

    Monomer A:  12 atoms
    Monomer B:  12 atoms
    Monomer C:   6 atoms

   => Link Bond Identification <=

    Link Bond Selection = AUTOMATIC

    Charge Completeness = 0.800

    Total Link Bonds = 2

    --------------------------
    N     Orb Type Aind1 Aind2
    --------------------------
    1      44   BC    13    28
    2      45   AC     1    25
    --------------------------

   => Link Bond Assignment <=

    Link Bond Assignment      = C

   => Partition Summary <=

    Monomer A:  0 charge,  48 protons,  48 electrons,  24 docc
    Monomer B:  0 charge,  48 protons,  48 electrons,  24 docc
    Monomer C:  0 charge,  18 protons,  18 electrons,   9 docc

  ==> Overlap Integrals <==

  ==> Kinetic Integrals <==

  ==> Nuclear Integrals <==

    Nuclear Repulsion Tot:   1.0472424147016743E+03 [Eh]

  ==> Coulomb Integrals <==

  DFHelper Memory: AOs need 1.406 GiB; user supplied 10.544 GiB. Using in-core AOs.

  ==> MemDFJK: Density-Fitted J/K Matrices <==

    J tasked:                   Yes
    K tasked:                   Yes
    wK tasked:                   No
    OpenMP threads:               1
    Memory [MiB]:             10800
    Algorithm:                 Core
    Schwarz Cutoff:           1E-12
    Mask sparsity (%):       9.7672
    Fitting Condition:        1E-10

   => Auxiliary Basis Set <=

  Basis Set: (JUN-CC-PVDZ AUX)
    Blend: JUN-CC-PVDZ-JKFIT
    Number of shells: 558
    Number of basis functions: 1586
    Number of Cartesian functions: 1806
    Spherical Harmonics?: true
    Max angular momentum: 3

  ==> Relaxed SCF Equations <==

  ==> SCF A: <==

    Maxiter =         100
    E Tol   =   1.000E-08
    D Tol   =   1.000E-08

    Max DIIS Vectors = 10

    Iter   N:                        E          dE         |D|
    Iter   1:  -2.9740671652498622E+02  -2.974E+02   4.231E-04 
    Iter   2:  -2.9741314551970248E+02  -6.429E-03   3.448E-05 DIIS
    Iter   3:  -2.9741332189322537E+02  -1.764E-04   1.117E-05 DIIS
    Iter   4:  -2.9741333856050869E+02  -1.667E-05   5.702E-06 DIIS
    Iter   5:  -2.9741334272585391E+02  -4.165E-06   1.521E-06 DIIS
    Iter   6:  -2.9741334332912498E+02  -6.033E-07   7.787E-07 DIIS
    Iter   7:  -2.9741334350295500E+02  -1.738E-07   3.538E-07 DIIS
    Iter   8:  -2.9741334354928887E+02  -4.633E-08   1.223E-07 DIIS
    Iter   9:  -2.9741334355396748E+02  -4.679E-09   3.679E-08 DIIS
    Iter  10:  -2.9741334355433435E+02  -3.669E-10   8.380E-09 DIIS

    FISAPTSCF Converged.

    Final SCF Energy:  -2.9741334355433435E+02 [Eh]

   => Occupied Orbital Energies <=

       1  -20.586560     2  -11.305073     3  -11.244132  
       4  -11.242490     5  -11.234760     6  -11.229679  
       7  -11.229489     8   -1.231046     9   -1.127579  
      10   -1.021196    11   -0.968987    12   -0.832843  
      13   -0.791578    14   -0.689383    15   -0.652273  
      16   -0.617687    17   -0.589512    18   -0.586848  
      19   -0.574880    20   -0.515877    21   -0.493180  
      22   -0.481496    23   -0.341134    24   -0.312339  

   => Virtual Orbital Energies <=

      25    0.031172    26    0.051934    27    0.056380  
      28    0.062383    29    0.072959    30    0.075165  
      31    0.079999    32    0.083878    33    0.093098  
      34    0.095325    35    0.098240    36    0.108681  
      37    0.110661    38    0.113447    39    0.118232  
      40    0.123918    41    0.125771    42    0.126649  
      43    0.130499    44    0.138135    45    0.141199  
      46    0.150539    47    0.153514    48    0.157783  
      49    0.164770    50    0.165990    51    0.171292  
      52    0.173842    53    0.181776    54    0.182175  
      55    0.189472    56    0.194559    57    0.196531  
      58    0.203576    59    0.209062    60    0.210328  
      61    0.214742    62    0.218036    63    0.224937  
      64    0.227364    65    0.231869    66    0.237929  
      67    0.243587    68    0.244919    69    0.250745  
      70    0.258890    71    0.261233    72    0.266098  
      73    0.270732    74    0.274608    75    0.283901  
      76    0.285255    77    0.289962    78    0.293285  
      79    0.296868    80    0.304500    81    0.317347  
      82    0.321950    83    0.327978    84    0.334003  
      85    0.347665    86    0.353946    87    0.360470  
      88    0.367927    89    0.375244    90    0.377268  
      91    0.390172    92    0.396807    93    0.401991  
      94    0.404042    95    0.421451    96    0.426914  
      97    0.432060    98    0.440874    99    0.444025  
     100    0.448978   101    0.457681   102    0.459117  
     103    0.461552   104    0.467299   105    0.472887  
     106    0.482434   107    0.490938   108    0.499606  
     109    0.507539   110    0.512659   111    0.521699  
     112    0.531723   113    0.538624   114    0.547224  
     115    0.553421   116    0.565951   117    0.571842  
     118    0.583785   119    0.596535   120    0.614786  
     121    0.634811   122    0.641802   123    0.654581  
     124    0.658492   125    0.679647   126    0.698013  
     127    0.718717   128    0.746731   129    0.754768  
     130    0.759001   131    0.778660   132    0.785729  
     133    0.799102   134    0.808757   135    0.826567  
     136    0.833886   137    0.846635   138    0.869952  
     139    0.871811   140    0.882333   141    0.900817  
     142    0.920146   143    0.927272   144    0.931696  
     145    0.936945   146    0.944921   147    0.952281  
     148    0.955632   149    0.965079   150    0.966296  
     151    0.974135   152    0.982603   153    0.983783  
     154    0.993055   155    1.001363   156    1.009565  
     157    1.019818   158    1.037307   159    1.045557  
     160    1.052986   161    1.059284   162    1.084901  
     163    1.109402   164    1.126000   165    1.134274  
     166    1.149425   167    1.161643   168    1.170687  
     169    1.189738   170    1.194797   171    1.221227  
     172    1.237333   173    1.245676   174    1.260130  
     175    1.263650   176    1.273497   177    1.287353  
     178    1.290633   179    1.323325   180    1.342560  
     181    1.348810   182    1.371597   183    1.375190  
     184    1.398898   185    1.424553   186    1.494643  
     187    1.515346   188    1.526560   189    1.546237  
     190    1.568138   191    1.624156   192    1.658536  
     193    1.685843   194    1.704649   195    1.709084  
     196    1.718871   197    1.738771   198    1.745697  
     199    1.758746   200    1.765145   201    1.769410  
     202    1.774708   203    1.789346   204    1.799857  
     205    1.805716   206    1.813196   207    1.820476  
     208    1.841356   209    1.863184   210    1.873136  
     211    1.899401   212    1.906167   213    1.915410  
     214    1.917665   215    1.929225   216    1.929334  
     217    1.949039   218    1.951600   219    1.958199  
     220    1.968261   221    1.983535   222    1.994518  
     223    1.997237   224    2.004405   225    2.012004  
     226    2.022013   227    2.025271   228    2.046173  
     229    2.052703   230    2.055190   231    2.071042  
     232    2.079192   233    2.084514   234    2.091876  
     235    2.099927   236    2.107690   237    2.128404  
     238    2.134734   239    2.143482   240    2.149845  
     241    2.155052   242    2.165031   243    2.184597  
     244    2.189407   245    2.196009   246    2.198164  
     247    2.205985   248    2.215507   249    2.224028  
     250    2.230294   251    2.247182   252    2.253053  
     253    2.265924   254    2.278027   255    2.291334  
     256    2.302778   257    2.318404   258    2.321418  
     259    2.338404   260    2.354953   261    2.367105  
     262    2.375415   263    2.417903   264    2.429527  
     265    2.433267   266    2.450676   267    2.466552  
     268    2.476536   269    2.492104   270    2.509814  
     271    2.516321   272    2.528324   273    2.541953  
     274    2.554484   275    2.563089   276    2.579902  
     277    2.600860   278    2.620361   279    2.650657  
     280    2.684185   281    2.713437   282    2.732672  
     283    2.763824   284    2.772250   285    2.786380  
     286    2.811032   287    2.815044   288    2.833800  
     289    2.843001   290    2.845146   291    2.854186  
     292    2.875809   293    2.892585   294    2.936132  
     295    2.946522   296    2.969944   297    3.014327  
     298    3.040731   299    3.058118   300    3.064061  
     301    3.102620   302    3.107321   303    3.118258  
     304    3.140250   305    3.157226   306    3.199312  
     307    3.222886   308    3.266152   309    3.287170  
     310    3.301675   311    3.314039   312    3.407738  
     313    3.454779   314    3.482270   315    3.545101  
     316    3.559562   317    3.588700   318    3.651253  
     319    3.717477   320    3.750870   321    3.868788  
     322    3.906632   323    4.126178   324    4.146574  
     325    4.283235   326    4.308150   327    4.343768  
     328    4.349587   329    4.447464   330    4.537540  
     331    4.569939   332    4.766618   333    4.937847  
     334    5.086899   335    5.185012   336    5.387172  
     337    5.409036   338    5.467483   339    5.481497  
     340    5.564826   341    5.695924   342    6.033001  
     343   17.977103   344   18.124126   345   18.136952  
     346   18.587903   347   18.612438   348   19.266545  
     349   26.470418  

  ==> SCF B: <==

    Maxiter =         100
    E Tol   =   1.000E-08
    D Tol   =   1.000E-08

    Max DIIS Vectors = 10

    Iter   N:                        E          dE         |D|
    Iter   1:  -2.9723995762812990E+02  -2.972E+02   6.693E-04 
    Iter   2:  -2.9725203556604964E+02  -1.208E-02   4.478E-05 DIIS
    Iter   3:  -2.9725224454065426E+02  -2.090E-04   1.415E-05 DIIS
    Iter   4:  -2.9725226119778222E+02  -1.666E-05   6.515E-06 DIIS
    Iter   5:  -2.9725226474365815E+02  -3.546E-06   1.133E-06 DIIS
    Iter   6:  -2.9725226497503900E+02  -2.314E-07   5.362E-07 DIIS
    Iter   7:  -2.9725226504774912E+02  -7.271E-08   2.269E-07 DIIS
    Iter   8:  -2.9725226506570647E+02  -1.796E-08   9.797E-08 DIIS
    Iter   9:  -2.9725226506919131E+02  -3.485E-09   3.667E-08 DIIS
    Iter  10:  -2.9725226506964970E+02  -4.584E-10   1.196E-08 DIIS
    Iter  11:  -2.9725226506967499E+02  -2.530E-11   4.566E-09 DIIS

    FISAPTSCF Converged.

    Final SCF Energy:  -2.9725226506967499E+02 [Eh]

   => Occupied Orbital Energies <=

       1  -20.583691     2  -11.300907     3  -11.241707  
       4  -11.239870     5  -11.232353     6  -11.227203  
       7  -11.227094     8   -1.227559     9   -1.124594  
      10   -1.018223    11   -0.966412    12   -0.830485  
      13   -0.788617    14   -0.687562    15   -0.650097  
      16   -0.615130    17   -0.587355    18   -0.584027  
      19   -0.573061    20   -0.513482    21   -0.490486  
      22   -0.478604    23   -0.338518    24   -0.309450  

   => Virtual Orbital Energies <=

      25    0.033361    26    0.052595    27    0.058779  
      28    0.065337    29    0.070774    30    0.073372  
      31    0.083531    32    0.085914    33    0.092637  
      34    0.098437    35    0.099530    36    0.107681  
      37    0.114173    38    0.115990    39    0.117376  
      40    0.121925    41    0.124252    42    0.131236  
      43    0.134910    44    0.136097    45    0.142181  
      46    0.149522    47    0.155628    48    0.159233  
      49    0.160785    50    0.173865    51    0.174328  
      52    0.177367    53    0.180306    54    0.184404  
      55    0.191291    56    0.194378    57    0.200713  
      58    0.203487    59    0.209185    60    0.215100  
      61    0.215576    62    0.220470    63    0.223533  
      64    0.232289    65    0.233591    66    0.235639  
      67    0.241663    68    0.246099    69    0.258182  
      70    0.264800    71    0.266892    72    0.272779  
      73    0.277891    74    0.281836    75    0.282537  
      76    0.290952    77    0.296694    78    0.302655  
      79    0.303956    80    0.311808    81    0.312994  
      82    0.322878    83    0.326652    84    0.334102  
      85    0.342574    86    0.350581    87    0.364398  
      88    0.373452    89    0.381028    90    0.385013  
      91    0.389147    92    0.393947    93    0.403971  
      94    0.409146    95    0.416263    96    0.423880  
      97    0.434913    98    0.437159    99    0.449884  
     100    0.452127   101    0.456044   102    0.458666  
     103    0.466527   104    0.469798   105    0.477697  
     106    0.485489   107    0.488562   108    0.503436  
     109    0.506620   110    0.507137   111    0.518237  
     112    0.521204   113    0.546760   114    0.553137  
     115    0.558694   116    0.566870   117    0.576433  
     118    0.590556   119    0.599312   120    0.612797  
     121    0.631085   122    0.648191   123    0.664931  
     124    0.671410   125    0.702063   126    0.706603  
     127    0.733867   128    0.741105   129    0.760150  
     130    0.762154   131    0.777826   132    0.789222  
     133    0.805102   134    0.815684   135    0.835598  
     136    0.842242   137    0.862691   138    0.876122  
     139    0.884502   140    0.890995   141    0.903114  
     142    0.911125   143    0.921575   144    0.927638  
     145    0.935167   146    0.943188   147    0.953411  
     148    0.965917   149    0.968658   150    0.972748  
     151    0.976417   152    0.992720   153    0.995455  
     154    0.997902   155    1.000958   156    1.018726  
     157    1.031886   158    1.033652   159    1.043402  
     160    1.045696   161    1.049422   162    1.075700  
     163    1.109014   164    1.115310   165    1.122455  
     166    1.141154   167    1.165269   168    1.186172  
     169    1.203913   170    1.219666   171    1.227492  
     172    1.240875   173    1.254010   174    1.260046  
     175    1.266563   176    1.287985   177    1.295651  
     178    1.303733   179    1.328599   180    1.341757  
     181    1.350634   182    1.372282   183    1.380397  
     184    1.390950   185    1.410581   186    1.508887  
     187    1.518178   188    1.519919   189    1.543438  
     190    1.591647   191    1.647132   192    1.667931  
     193    1.672624   194    1.679188   195    1.698809  
     196    1.718362   197    1.729617   198    1.763619  
     199    1.772181   200    1.776420   201    1.779530  
     202    1.785761   203    1.797655   204    1.809103  
     205    1.819874   206    1.824556   207    1.840119  
     208    1.858414   209    1.859852   210    1.885032  
     211    1.896053   212    1.914633   213    1.919341  
     214    1.933383   215    1.936081   216    1.943677  
     217    1.949119   218    1.954460   219    1.962219  
     220    1.980010   221    1.985699   222    1.995958  
     223    2.003239   224    2.007884   225    2.015522  
     226    2.030014   227    2.036940   228    2.044204  
     229    2.048022   230    2.063499   231    2.069687  
     232    2.076932   233    2.086419   234    2.098517  
     235    2.102430   236    2.119771   237    2.127934  
     238    2.132242   239    2.142249   240    2.150487  
     241    2.154213   242    2.166085   243    2.179096  
     244    2.181026   245    2.191766   246    2.198480  
     247    2.207598   248    2.212280   249    2.225899  
     250    2.235196   251    2.246702   252    2.268808  
     253    2.277131   254    2.281838   255    2.303283  
     256    2.311455   257    2.320766   258    2.332689  
     259    2.339532   260    2.358904   261    2.378459  
     262    2.388457   263    2.411706   264    2.426576  
     265    2.433550   266    2.446500   267    2.459247  
     268    2.475183   269    2.496811   270    2.520786  
     271    2.525129   272    2.529866   273    2.548292  
     274    2.553238   275    2.578931   276    2.596090  
     277    2.609651   278    2.618854   279    2.654910  
     280    2.685961   281    2.702005   282    2.743332  
     283    2.767577   284    2.782603   285    2.795074  
     286    2.815215   287    2.821975   288    2.824408  
     289    2.849132   290    2.854497   291    2.868963  
     292    2.879715   293    2.910337   294    2.926639  
     295    2.956238   296    2.969788   297    3.034132  
     298    3.052734   299    3.057243   300    3.083808  
     301    3.106456   302    3.112491   303    3.129840  
     304    3.144527   305    3.157081   306    3.198131  
     307    3.223878   308    3.255911   309    3.296664  
     310    3.300118   311    3.318421   312    3.415108  
     313    3.460176   314    3.469282   315    3.552980  
     316    3.577608   317    3.582344   318    3.660054  
     319    3.712570   320    3.765368   321    3.873134  
     322    3.903278   323    4.132939   324    4.158199  
     325    4.293489   326    4.327702   327    4.332672  
     328    4.354550   329    4.451312   330    4.529297  
     331    4.568125   332    4.773977   333    4.936668  
     334    5.053109   335    5.132971   336    5.396390  
     337    5.421957   338    5.473568   339    5.489332  
     340    5.566259   341    5.707786   342    6.025256  
     343   17.983097   344   18.134582   345   18.145618  
     346   18.595716   347   18.623909   348   19.281894  
     349   26.465462  

  ==> Frozen Core <==


    ------------------
    Range      A     B
    ------------------
    nbf      358   358
    nmo      349   349
    nocc      24    24
    nvir     325   325
    nfocc      7     7
    naocc     17    17
    navir    325   325
    nfvir      0     0
    ------------------

  ==> Unification <==

  ==> dHF <==

    E ABC(HF) =  -6.8807018907400152E+02 [Eh]
    E AC(0)   =  -3.8088038002135215E+02 [Eh]
    E BC(0)   =  -3.8090229375703757E+02 [Eh]
    E A(0)    =  -2.8266790391234463E+02 [Eh]
    E B(0)    =  -2.8266895117576473E+02 [Eh]
    E AC(HF)  =  -3.8087375299200380E+02 [Eh]
    E BC(HF)  =  -3.8088998631549293E+02 [Eh]
    E AB(HF)  =  -5.6531116915966481E+02 [Eh]
    E A(HF)   =  -2.8265128191191673E+02 [Eh]
    E B(HF)   =  -2.8264944582399994E+02 [Eh]
    E C       =  -7.3703991657235193E+01 [Eh]
    E HF      =   8.4930471530100249E-03 [Eh]

  ==> Electrostatics <==

    Elst10,r            =     0.003336472685 [Eh]

  ==> Exchange <==

    Exch10(S^2)         =     0.006944644611 [Eh]
    Exch10              =     0.006975363484 [Eh]

  ==> Induction <==

    Ind20,u (A<-B)      =    -0.001775818019 [Eh]
    Ind20,u (B<-A)      =    -0.001123791468 [Eh]
    Ind20,u             =    -0.002899609487 [Eh]
    Exch-Ind20,u (A<-B) =     0.001351428098 [Eh]
    Exch-Ind20,u (B<-A) =     0.000512263527 [Eh]
    Exch-Ind20,u        =     0.001863691624 [Eh]

  ==> CPHF Iterations <==

    Maxiter     =         100
    Convergence =   1.000E-08

    -----------------------------------------
    Iter   Monomer A    Monomer B    Time [s]
    -----------------------------------------
    1      1.843E-01    2.372E-01           3
    2      6.419E-02    8.089E-02           6
    3      1.329E-02    2.381E-02           8
    4      6.401E-03    1.125E-02          11
    5      2.302E-03    4.806E-03          13
    6      1.078E-03    2.098E-03          16
    7      4.225E-04    6.410E-04          19
    8      1.111E-04    1.984E-04          21
    9      3.403E-05    7.005E-05          24
    10     1.363E-05    2.368E-05          26
    11     4.019E-06    8.044E-06          29
    12     1.586E-06    3.627E-06          32
    13     7.285E-07    1.163E-06          34
    14     2.137E-07    2.874E-07          38
    15     8.752E-08    9.568E-08          40
    16     2.093E-08    3.047E-08          43
    17     5.794E-09*   7.961E-09*         45
    -----------------------------------------

    Ind20,r (A<-B)      =    -0.002141054426 [Eh]
    Ind20,r (B<-A)      =    -0.001313130113 [Eh]
    Ind20,r             =    -0.003454184540 [Eh]
    Exch-Ind20,r (A<-B) =     0.001683976959 [Eh]
    Exch-Ind20,r (B<-A) =     0.000669020403 [Eh]
    Exch-Ind20,r        =     0.002352997362 [Eh]

  ==> F-SAPT Localization (IBO) <==

  Local Orbitals for Monomer A:

  ==> IBO Localizer 2 <==

    MinAO Basis = CC-PVTZ-MINAO
    Use Ghosts  =       FALSE
    Use Stars   =       FALSE
    Condition   =   1.000E-07
    Power       =           4
    Convergence =   1.000E-12
    Maxiter     =        1000

    @IBO Iter:                   Metric       Gradient
    @IBO    1:   1.6126897678970602E+00   1.756646E+00
    @IBO    2:   1.7425761286485566E+00   8.426004E-01
    @IBO    3:   1.7909620683059915E+00   3.864572E-01
    @IBO    4:   1.7948033079353414E+00   5.917709E-02
    @IBO    5:   1.7948434506070876E+00   6.535859E-04
    @IBO    6:   1.7948434587304132E+00   2.993114E-05
    @IBO    7:   1.7948434588142319E+00   5.506019E-06
    @IBO    8:   1.7948434588174620E+00   1.218696E-06
    @IBO    9:   1.7948434588176061E+00   2.802553E-07
    @IBO   10:   1.7948434588176128E+00   6.438082E-08
    @IBO   11:   1.7948434588176134E+00   1.458167E-08
    @IBO   12:   1.7948434588176132E+00   3.249418E-09
    @IBO   13:   1.7948434588176134E+00   7.134073E-10
    @IBO   14:   1.7948434588176132E+00   1.546371E-10
    @IBO   15:   1.7948434588176134E+00   3.315897E-11
    @IBO   16:   1.7948434588176134E+00   7.045783E-12
    @IBO   17:   1.7948434588176134E+00   1.485556E-12
    @IBO   18:   1.7948434588176132E+00   3.111165E-13

    IBO Localizer 2 converged.

  Local Orbitals for Monomer B:

  ==> IBO Localizer 2 <==

    MinAO Basis = CC-PVTZ-MINAO
    Use Ghosts  =       FALSE
    Use Stars   =       FALSE
    Condition   =   1.000E-07
    Power       =           4
    Convergence =   1.000E-12
    Maxiter     =        1000

    @IBO Iter:                   Metric       Gradient
    @IBO    1:   1.5780924954068367E+00   2.086974E+00
    @IBO    2:   1.7418862380454294E+00   8.351682E-01
    @IBO    3:   1.7897161593398234E+00   3.991310E-01
    @IBO    4:   1.7943046135294998E+00   8.723435E-02
    @IBO    5:   1.7943908312283283E+00   6.730277E-04
    @IBO    6:   1.7943908410537499E+00   3.651871E-05
    @IBO    7:   1.7943908411561849E+00   5.598204E-06
    @IBO    8:   1.7943908411594263E+00   1.031207E-06
    @IBO    9:   1.7943908411595471E+00   2.146643E-07
    @IBO   10:   1.7943908411595522E+00   4.814949E-08
    @IBO   11:   1.7943908411595528E+00   1.104336E-08
    @IBO   12:   1.7943908411595528E+00   2.520711E-09
    @IBO   13:   1.7943908411595526E+00   5.674985E-10
    @IBO   14:   1.7943908411595524E+00   1.258602E-10
    @IBO   15:   1.7943908411595524E+00   2.753278E-11
    @IBO   16:   1.7943908411595524E+00   5.951779E-12
    @IBO   17:   1.7943908411595524E+00   1.273616E-12
    @IBO   18:   1.7943908411595524E+00   2.702098E-13

    IBO Localizer 2 converged.

  ==> F-SAPT Electrostatics <==

  DFHelper Memory: AOs need 1.554 GiB; user supplied 10.547 GiB. Using in-core AOs.

  ==> DFHelper <==
    NBF:                             358
    NAux:                           1586
    Schwarz Cutoff:                1E-12
    Mask sparsity (%):                10
    DFH Avail. Memory [GiB]:      10.547
    OpenMP threads:                    1
    Algorithm:                DIRECT_iaQ
    AO Core:                        True
    MO Core:                       False
    Hold Metric:                   False
    Metric Power:                 -0.500
    Fitting Condition:             1E-12
    Q Shell Max:                       7


    Elst10,r            =     0.003336472722 [Eh]

  ==> F-SAPT Exchange <==

    Exch10(S^2)         =     0.006944644611 [Eh]

    Scaling F-SAPT Exch10(S^2) by   1.004E+00 to match Exch10

  ==> F-SAPT Induction <==

    Ind20,u (A<-B)      =    -0.001775818019 [Eh]
    Ind20,u (B<-A)      =    -0.001123791468 [Eh]
    Ind20,u             =    -0.002899609487 [Eh]
    Exch-Ind20,u (A<-B) =     0.001351428098 [Eh]
    Exch-Ind20,u (B<-A) =     0.000512263527 [Eh]
    Exch-Ind20,u        =     0.001863691625 [Eh]

    Scaling for delta HF        =   1.652E+00
    Scaling for response (A<-B) =   1.077E+00
    Scaling for response (B<-A) =   1.053E+00
    Scaling for total (A<-B)    =   1.779E+00
    Scaling for total (B<-A)    =   1.740E+00

  ==> F-SAPT Dispersion <==

  DFHelper Memory: AOs need 1.213 GiB; user supplied 10.541 GiB. Using in-core AOs.

  ==> DFHelper <==
    NBF:                             358
    NAux:                           1236
    Schwarz Cutoff:                1E-12
    Mask sparsity (%):                10
    DFH Avail. Memory [GiB]:      10.541
    OpenMP threads:                    1
    Algorithm:                DIRECT_iaQ
    AO Core:                        True
    MO Core:                       False
    Hold Metric:                   False
    Metric Power:                 -0.500
    Fitting Condition:             1E-12
    Q Shell Max:                       7


    1415577600 doubles - 1587685 overhead leaves 1413989915 for dispersion
    Processing a single (r,s) pair requires 168096 doubles
    325 values of r processed in 1 blocks of 325
    325 values of s processed in 1 blocks of 325

    Disp20              =    -0.007233751286 [Eh]
    Exch-Disp20         =     0.000736694073 [Eh]

  ==> F-SAPT Output <==

    F-SAPT Data Filepath = fsapt/

  ==> Scalar Field Plots <==

    F-SAPT Plot Filepath = plot/

  ==> CubicScalarGrid <==

    Filepath     = plot/
    Total Points =          1041250
    XYZ Blocking =               10
    X Points     =              125
    Y Points     =               98
    Z Points     =               85
    X Spacing    =        2.000E-01
    Y Spacing    =        2.000E-01
    Z Spacing    =        2.000E-01
    X Minimum    =       -1.309E+01
    Y Minimum    =       -9.384E+00
    Z Minimum    =       -7.936E+00
    X Maximum    =        1.171E+01
    Y Maximum    =        1.002E+01
    Z Maximum    =        8.864E+00

  Basis Set: JUN-CC-PVDZ
    Blend: JUN-CC-PVDZ
    Number of shells: 170
    Number of basis functions: 358
    Number of Cartesian functions: 374
    Spherical Harmonics?: true
    Max angular momentum: 2

*********************************************************************************************************************
When computing potential integrals with different bra and ket basis, the atom definition is taken from the bra basis.
*********************************************************************************************************************
*********************************************************************************************************************
When computing potential integrals with different bra and ket basis, the atom definition is taken from the bra basis.
*********************************************************************************************************************
*********************************************************************************************************************
When computing potential integrals with different bra and ket basis, the atom definition is taken from the bra basis.
*********************************************************************************************************************
  ==> Results <==


    SAPT Results  
  --------------------------------------------------------------------------------------------------------
    Electrostatics                  3.33647268 [mEh]       2.09366822 [kcal/mol]       8.75990783 [kJ/mol]
      Elst10,r                      3.33647268 [mEh]       2.09366822 [kcal/mol]       8.75990783 [kJ/mol]

    Exchange                        6.97536348 [mEh]       4.37710667 [kcal/mol]      18.31381431 [kJ/mol]
      Exch10                        6.97536348 [mEh]       4.37710667 [kcal/mol]      18.31381431 [kJ/mol]
      Exch10(S^2)                   6.94464461 [mEh]       4.35783029 [kcal/mol]      18.23316191 [kJ/mol]

    Induction                      -1.81878902 [mEh]      -1.14130734 [kcal/mol]      -4.77522990 [kJ/mol]
      Ind20,r                      -3.45418454 [mEh]      -2.16753352 [kcal/mol]      -9.06896026 [kJ/mol]
      Exch-Ind20,r                  2.35299736 [mEh]       1.47652814 [kcal/mol]       6.17779372 [kJ/mol]
      delta HF,r (2)               -0.71760184 [mEh]      -0.45030195 [kcal/mol]      -1.88406337 [kJ/mol]
      Induction (A<-B)             -0.75493748 [mEh]      -0.47373042 [kcal/mol]      -1.98208809 [kJ/mol]
      Induction (B<-A)             -1.06385153 [mEh]      -0.66757692 [kcal/mol]      -2.79314181 [kJ/mol]

    Dispersion                     -6.49705721 [mEh]      -4.07696495 [kcal/mol]     -17.05802136 [kJ/mol]
      Disp20                       -7.23375129 [mEh]      -4.53924746 [kcal/mol]     -18.99221138 [kJ/mol]
      Exch-Disp20                   0.73669407 [mEh]       0.46228251 [kcal/mol]       1.93419002 [kJ/mol]

  Total HF                          8.49304715 [mEh]       5.32946755 [kcal/mol]      22.29849223 [kJ/mol]
  Total SAPT0                       1.99598994 [mEh]       1.25250260 [kcal/mol]       5.24047087 [kJ/mol]

  --------------------------------------------------------------------------------------------------------
    Han Solo: This is *not* gonna work.
    Luke Skywalker: Why didn't you say so before?
    Han Solo: I *did* say so before.

    Psi4 stopped on: Thursday, 09 November 2023 01:45PM
    Psi4 wall time for execution: 0:16:25.69

*** Psi4 exiting successfully. Buy a developer a beer!
