
    -----------------------------------------------------------------------
          Psi4: An Open-Source Ab Initio Electronic Structure Package
                               Psi4 1.7 release

                         Git: Rev {HEAD} 6ce35a5 


    D. G. A. Smith, L. A. Burns, A. C. Simmonett, R. M. Parrish,
    M. C. Schieber, R. Galvelis, P. Kraus, H. Kruse, R. Di Remigio,
    A. Alenaizan, A. M. James, S. Lehtola, J. P. Misiewicz, M. Scheurer,
    R. A. Shaw, J. B. Schriber, Y. Xie, Z. L. Glick, D. A. Sirianni,
    J. S. O'Brien, J. M. Waldrop, A. Kumar, E. G. Hohenstein,
    B. P. Pritchard, B. R. Brooks, H. F. Schaefer III, A. Yu. Sokolov,
    K. Patkowski, A. E. DePrince III, U. Bozkaya, R. A. King,
    F. A. Evangelista, J. M. Turney, T. D. Crawford, C. D. Sherrill,
    J. Chem. Phys. 152(18) 184108 (2020). https://doi.org/10.1063/5.0006002

                            Additional Code Authors
    E. T. Seidl, C. L. Janssen, E. F. Valeev, M. L. Leininger,
    J. F. Gonthier, R. M. Richard, H. R. McAlexander, M. Saitow, X. Wang,
    P. Verma, M. H. Lechner, A. Jiang, S. Behnle, A. G. Heide,
    M. F. Herbst, and D. L. Poole

             Previous Authors, Complete List of Code Contributors,
                       and Citations for Specific Modules
    https://github.com/psi4/psi4/blob/master/codemeta.json
    https://github.com/psi4/psi4/graphs/contributors
    http://psicode.org/psi4manual/master/introduction.html#citing-psifour

    -----------------------------------------------------------------------


    Psi4 started on: Thursday, 09 November 2023 01:45PM

    Process ID: 13040
    Host:       DESKTOP-D4OA462
    PSIDATADIR: C:\Users\Ivan\.conda\envs\psi4\lib\share\psi4
    Memory:     500.0 MiB
    Threads:    1
    
  ==> Input File <==

--------------------------------------------------------------------------
memory 12000 MiB
mol = psi4.core.Molecule.from_arrays(
    elez=[8,6,6,6,6,6,6,1,1,1,1,1,8,6,6,6,6,6,6,1,1,1,1,1,6,1,1,6,1,1],
    fragment_separators=[12, 24],
    fix_com=True,
    fix_orientation=True,
    fix_symmetry='c1',
    fragment_multiplicities=[2, 2, 1],
    molecular_charge=0,
    molecular_multiplicity=1,
    geom= [
       -1.759924267,     -0.472931580,      1.639444033,
       -2.428152444,     -0.160289703,      0.499196379,
       -1.905728201,     -0.281100651,     -0.783625909,
       -3.736893335,      0.283526749,      0.671258420,
       -2.694718523,      0.048172686,     -1.878577627,
       -4.510313385,      0.604694332,     -0.427820104,
       -3.994298180,      0.492787627,     -1.713027091,
       -0.899768826,     -0.639459579,     -0.946042794,
       -4.125280366,      0.367497023,      1.678270793,
       -2.278467547,     -0.051216154,     -2.873975149,
       -5.526509966,      0.948087767,     -0.278862435,
       -4.600368200,      0.747697564,     -2.572676390,
                                                        
        1.759924267,      0.472931580,      1.639444033,
        2.428152444,      0.160289703,      0.499196379,
        1.905728201,      0.281100651,     -0.783625909,
        3.736893335,     -0.283526749,      0.671258420,
        2.694718523,     -0.048172686,     -1.878577627,
        4.510313385,     -0.604694332,     -0.427820104,
        3.994298180,     -0.492787627,     -1.713027091,
        0.899768826,      0.639459579,     -0.946042794,
        4.125280366,     -0.367497023,      1.678270793,
        2.278467547,      0.051216154,     -2.873975149,
        5.526509966,     -0.948087767,     -0.278862435,
        4.600368200,     -0.747697564,     -2.572676390,
                                                        
        0.364615000,      0.667122437,      1.594124253,
        0.110684937,      1.214237201,      2.502075233,
        0.061902353,      1.283358032,      0.743784751,
       -0.364615000,     -0.667122437,      1.594124253,
       -0.061902353,     -1.283358032,      0.743784751,
       -0.110684937,     -1.214237201,      2.502075233])
activate(mol)       
                    
set {               
basis jun-cc-pvdz   
scf_type df
guess sad
freeze_core true
fisapt_do_plot true
}
energy('fisapt0')
--------------------------------------------------------------------------

  Memory set to  11.719 GiB by Python driver.

Scratch directory: C:\Users\Ivan\AppData\Local\Temp/

*** tstart() called on DESKTOP-D4OA462
*** at Thu Nov  9 13:45:25 2023

   => Loading Basis Set <=

    Name: JUN-CC-PVDZ
    Role: ORBITAL
    Keyword: BASIS
    atoms 1, 13                     entry O          line   232 file C:\Users\Ivan\.conda\envs\psi4\lib\share\psi4\basis\jun-cc-pvdz.gbs 
    atoms 2-7, 14-19, 25, 28        entry C          line   164 file C:\Users\Ivan\.conda\envs\psi4\lib\share\psi4\basis\jun-cc-pvdz.gbs 
    atoms 8-12, 20-24, 26-27, 29-30 entry H          line    36 file C:\Users\Ivan\.conda\envs\psi4\lib\share\psi4\basis\jun-cc-pvdz.gbs 


         ---------------------------------------------------------
                                   SCF
               by Justin Turney, Rob Parrish, Andy Simmonett
                          and Daniel G. A. Smith
                              RHF Reference
                        1 Threads,   -288 MiB Core
         ---------------------------------------------------------

  ==> Geometry <==

    Molecular point group: c1
    Full point group: C2

    Geometry (in Angstrom), charge = 0, multiplicity = 1:

       Center              X                  Y                   Z               Mass       
    ------------   -----------------  -----------------  -----------------  -----------------
         O           -1.759924267000    -0.472931580000     1.639444033000    15.994914619570
         C           -2.428152444000    -0.160289703000     0.499196379000    12.000000000000
         C           -1.905728201000    -0.281100651000    -0.783625909000    12.000000000000
         C           -3.736893335000     0.283526749000     0.671258420000    12.000000000000
         C           -2.694718523000     0.048172686000    -1.878577627000    12.000000000000
         C           -4.510313385000     0.604694332000    -0.427820104000    12.000000000000
         C           -3.994298180000     0.492787627000    -1.713027091000    12.000000000000
         H           -0.899768826000    -0.639459579000    -0.946042794000     1.007825032230
         H           -4.125280366000     0.367497023000     1.678270793000     1.007825032230
         H           -2.278467547000    -0.051216154000    -2.873975149000     1.007825032230
         H           -5.526509966000     0.948087767000    -0.278862435000     1.007825032230
         H           -4.600368200000     0.747697564000    -2.572676390000     1.007825032230
         O            1.759924267000     0.472931580000     1.639444033000    15.994914619570
         C            2.428152444000     0.160289703000     0.499196379000    12.000000000000
         C            1.905728201000     0.281100651000    -0.783625909000    12.000000000000
         C            3.736893335000    -0.283526749000     0.671258420000    12.000000000000
         C            2.694718523000    -0.048172686000    -1.878577627000    12.000000000000
         C            4.510313385000    -0.604694332000    -0.427820104000    12.000000000000
         C            3.994298180000    -0.492787627000    -1.713027091000    12.000000000000
         H            0.899768826000     0.639459579000    -0.946042794000     1.007825032230
         H            4.125280366000    -0.367497023000     1.678270793000     1.007825032230
         H            2.278467547000     0.051216154000    -2.873975149000     1.007825032230
         H            5.526509966000    -0.948087767000    -0.278862435000     1.007825032230
         H            4.600368200000    -0.747697564000    -2.572676390000     1.007825032230
         C            0.364615000000     0.667122437000     1.594124253000    12.000000000000
         H            0.110684937000     1.214237201000     2.502075233000     1.007825032230
         H            0.061902353000     1.283358032000     0.743784751000     1.007825032230
         C           -0.364615000000    -0.667122437000     1.594124253000    12.000000000000
         H           -0.061902353000    -1.283358032000     0.743784751000     1.007825032230
         H           -0.110684937000    -1.214237201000     2.502075233000     1.007825032230

  Running in c1 symmetry.

  Rotational constants: A =      0.03915  B =      0.00883  C =      0.00747 [cm^-1]
  Rotational constants: A =   1173.76367  B =    264.67701  C =    223.85483 [MHz]
  Nuclear repulsion = 1014.062643190251833

  Charge       = 0
  Multiplicity = 1
  Electrons    = 114
  Nalpha       = 57
  Nbeta        = 57

  ==> Algorithm <==

  SCF Algorithm Type is DF.
  DIIS enabled.
  MOM disabled.
  Fractional occupation disabled.
  Guess Type is SAD.
  Energy threshold   = 1.00e-08
  Density threshold  = 1.00e-08
  Integral threshold = 1.00e-12

  ==> Primary Basis <==

  Basis Set: JUN-CC-PVDZ
    Blend: JUN-CC-PVDZ
    Number of shells: 170
    Number of basis functions: 358
    Number of Cartesian functions: 374
    Spherical Harmonics?: true
    Max angular momentum: 2

   => Loading Basis Set <=

    Name: (JUN-CC-PVDZ AUX)
    Role: JKFIT
    Keyword: DF_BASIS_SCF
    atoms 1, 13                     entry O          line   258 file C:\Users\Ivan\.conda\envs\psi4\lib\share\psi4\basis\jun-cc-pvdz-jkfit.gbs 
    atoms 2-7, 14-19, 25, 28        entry C          line   146 file C:\Users\Ivan\.conda\envs\psi4\lib\share\psi4\basis\jun-cc-pvdz-jkfit.gbs 
    atoms 8-12, 20-24, 26-27, 29-30 entry H          line    70 file C:\Users\Ivan\.conda\envs\psi4\lib\share\psi4\basis\jun-cc-pvdz-jkfit.gbs 

  ==> Integral Setup <==

  DFHelper Memory: AOs need 1.353 GiB; user supplied 8.789 GiB. Using in-core AOs.

  ==> MemDFJK: Density-Fitted J/K Matrices <==

    J tasked:                   Yes
    K tasked:                   Yes
    wK tasked:                   No
    OpenMP threads:               1
    Memory [MiB]:              9000
    Algorithm:                 Core
    Schwarz Cutoff:           1E-12
    Mask sparsity (%):      13.2580
    Fitting Condition:        1E-10

   => Auxiliary Basis Set <=

  Basis Set: (JUN-CC-PVDZ AUX)
    Blend: JUN-CC-PVDZ-JKFIT
    Number of shells: 558
    Number of basis functions: 1586
    Number of Cartesian functions: 1806
    Spherical Harmonics?: true
    Max angular momentum: 3

  Minimum eigenvalue in the overlap matrix is 5.7621591607E-06.
  Reciprocal condition number of the overlap matrix is 4.0021533552E-07.
    Using symmetric orthogonalization.

  ==> Pre-Iterations <==

  SCF Guess: Superposition of Atomic Densities via on-the-fly atomic UHF (no occupation information).

   -------------------------
    Irrep   Nso     Nmo    
   -------------------------
     A        358     358 
   -------------------------
    Total     358     358
   -------------------------

  ==> Iterations <==

                           Total Energy        Delta E     RMS |[F,P]|

   @DF-RHF iter SAD:  -687.65411451990519   -6.87654e+02   0.00000e+00 
   @DF-RHF iter   1:  -687.67367137374060   -1.95569e-02   2.18689e-03 ADIIS/DIIS
   @DF-RHF iter   2:  -688.00606752503143   -3.32396e-01   9.57461e-04 ADIIS/DIIS
   @DF-RHF iter   3:  -688.06716682543083   -6.10993e-02   1.98802e-04 ADIIS/DIIS
   @DF-RHF iter   4:  -688.07112824072021   -3.96142e-03   7.30363e-05 DIIS
   @DF-RHF iter   5:  -688.07151358498299   -3.85344e-04   1.43440e-05 DIIS
   @DF-RHF iter   6:  -688.07153976815107   -2.61832e-05   5.19276e-06 DIIS
   @DF-RHF iter   7:  -688.07154318781829   -3.41967e-06   1.77118e-06 DIIS
   @DF-RHF iter   8:  -688.07154375867344   -5.70855e-07   5.82801e-07 DIIS
   @DF-RHF iter   9:  -688.07154384972694   -9.10535e-08   2.37166e-07 DIIS
   @DF-RHF iter  10:  -688.07154386373361   -1.40067e-08   1.08477e-07 DIIS
   @DF-RHF iter  11:  -688.07154386878597   -5.05236e-09   4.17443e-08 DIIS
   @DF-RHF iter  12:  -688.07154386960406   -8.18090e-10   1.49644e-08 DIIS
   @DF-RHF iter  13:  -688.07154386966624   -6.21867e-11   4.52992e-09 DIIS
  Energy and wave function converged.


  ==> Post-Iterations <==

    Orbital Energies [Eh]
    ---------------------

    Doubly Occupied:                                                      

       1A    -20.597407     2A    -20.597406     3A    -11.310825  
       4A    -11.310825     5A    -11.298358     6A    -11.297729  
       7A    -11.250360     8A    -11.250360     9A    -11.248255  
      10A    -11.248255    11A    -11.241459    12A    -11.241457  
      13A    -11.236570    14A    -11.236569    15A    -11.235955  
      16A    -11.235955    17A     -1.433800    18A     -1.424354  
      19A     -1.161955    20A     -1.159304    21A     -1.060497  
      22A     -1.028704    23A     -1.028574    24A     -1.021362  
      25A     -0.987235    26A     -0.898400    27A     -0.845612  
      28A     -0.840003    29A     -0.821917    30A     -0.803473  
      31A     -0.741455    32A     -0.732274    33A     -0.686214  
      34A     -0.682692    35A     -0.677589    36A     -0.666002  
      37A     -0.643006    38A     -0.637937    39A     -0.621047  
      40A     -0.605012    41A     -0.598726    42A     -0.593662  
      43A     -0.590774    44A     -0.565775    45A     -0.538423  
      46A     -0.528373    47A     -0.522443    48A     -0.518725  
      49A     -0.508869    50A     -0.490129    51A     -0.487904  
      52A     -0.475702    53A     -0.459540    54A     -0.347642  
      55A     -0.346690    56A     -0.322609    57A     -0.314288  

    Virtual:                                                              

      58A      0.057755    59A      0.062054    60A      0.063120  
      61A      0.069363    62A      0.073735    63A      0.076679  
      64A      0.088778    65A      0.090271    66A      0.093590  
      67A      0.097927    68A      0.104959    69A      0.107478  
      70A      0.110583    71A      0.111669    72A      0.116137  
      73A      0.119677    74A      0.121888    75A      0.124464  
      76A      0.131023    77A      0.136161    78A      0.140943  
      79A      0.150633    80A      0.151402    81A      0.158434  
      82A      0.158597    83A      0.166991    84A      0.171471  
      85A      0.180151    86A      0.183650    87A      0.185580  
      88A      0.189055    89A      0.194973    90A      0.199095  
      91A      0.202931    92A      0.208120    93A      0.212063  
      94A      0.216348    95A      0.220473    96A      0.227697  
      97A      0.230850    98A      0.238523    99A      0.244912  
     100A      0.249854   101A      0.254711   102A      0.263740  
     103A      0.264588   104A      0.273316   105A      0.274166  
     106A      0.276532   107A      0.280499   108A      0.289848  
     109A      0.290880   110A      0.293707   111A      0.296289  
     112A      0.300591   113A      0.305479   114A      0.309778  
     115A      0.313215   116A      0.333417   117A      0.334438  
     118A      0.344447   119A      0.345637   120A      0.349795  
     121A      0.354648   122A      0.360189   123A      0.360707  
     124A      0.370124   125A      0.373707   126A      0.375233  
     127A      0.378167   128A      0.383376   129A      0.390340  
     130A      0.396959   131A      0.397556   132A      0.402852  
     133A      0.418720   134A      0.422071   135A      0.427030  
     136A      0.438286   137A      0.438702   138A      0.446427  
     139A      0.456560   140A      0.474393   141A      0.475921  
     142A      0.485237   143A      0.492527   144A      0.502069  
     145A      0.507175   146A      0.519467   147A      0.529346  
     148A      0.539616   149A      0.555073   150A      0.559738  
     151A      0.568613   152A      0.587941   153A      0.590342  
     154A      0.607445   155A      0.684792   156A      0.719751  
     157A      0.747672   158A      0.748161   159A      0.762633  
     160A      0.791720   161A      0.800216   162A      0.805063  
     163A      0.818325   164A      0.818604   165A      0.824704  
     166A      0.828567   167A      0.861288   168A      0.863932  
     169A      0.873860   170A      0.873903   171A      0.877020  
     172A      0.878326   173A      0.891576   174A      0.900130  
     175A      0.903791   176A      0.915616   177A      0.923089  
     178A      0.927384   179A      0.936850   180A      0.942425  
     181A      0.946306   182A      0.953010   183A      0.957940  
     184A      0.960134   185A      0.962052   186A      0.967487  
     187A      0.970340   188A      0.975363   189A      0.977286  
     190A      0.983678   191A      0.987895   192A      0.999408  
     193A      1.001675   194A      1.015466   195A      1.023744  
     196A      1.032976   197A      1.047543   198A      1.081417  
     199A      1.090949   200A      1.096338   201A      1.104251  
     202A      1.109462   203A      1.137607   204A      1.141773  
     205A      1.152305   206A      1.156938   207A      1.167318  
     208A      1.173385   209A      1.178889   210A      1.191660  
     211A      1.199895   212A      1.230731   213A      1.245895  
     214A      1.246865   215A      1.251575   216A      1.252769  
     217A      1.260457   218A      1.265860   219A      1.269340  
     220A      1.272097   221A      1.276727   222A      1.277705  
     223A      1.278397   224A      1.315705   225A      1.324637  
     226A      1.325680   227A      1.344098   228A      1.349861  
     229A      1.359858   230A      1.363250   231A      1.382566  
     232A      1.383520   233A      1.386700   234A      1.448704  
     235A      1.482727   236A      1.496836   237A      1.511026  
     238A      1.530772   239A      1.534814   240A      1.534924  
     241A      1.539757   242A      1.579393   243A      1.654571  
     244A      1.658671   245A      1.687780   246A      1.697461  
     247A      1.699535   248A      1.738163   249A      1.742377  
     250A      1.764896   251A      1.767404   252A      1.769383  
     253A      1.795672   254A      1.799234   255A      1.800003  
     256A      1.815853   257A      1.818406   258A      1.856306  
     259A      1.898007   260A      1.905932   261A      1.913297  
     262A      1.923926   263A      1.924199   264A      1.928702  
     265A      1.934320   266A      1.937819   267A      1.946708  
     268A      1.958029   269A      1.958137   270A      1.963691  
     271A      1.969945   272A      1.975622   273A      1.978413  
     274A      1.984770   275A      1.998816   276A      2.020129  
     277A      2.022533   278A      2.024630   279A      2.041209  
     280A      2.059536   281A      2.064445   282A      2.074213  
     283A      2.084401   284A      2.092581   285A      2.101124  
     286A      2.105188   287A      2.108787   288A      2.118633  
     289A      2.136100   290A      2.159433   291A      2.162218  
     292A      2.171406   293A      2.181697   294A      2.184548  
     295A      2.185291   296A      2.187880   297A      2.200146  
     298A      2.201190   299A      2.204504   300A      2.218102  
     301A      2.252239   302A      2.274906   303A      2.283997  
     304A      2.303168   305A      2.315106   306A      2.317998  
     307A      2.332543   308A      2.393886   309A      2.396079  
     310A      2.412561   311A      2.424200   312A      2.451158  
     313A      2.486927   314A      2.495283   315A      2.502415  
     316A      2.513999   317A      2.525335   318A      2.550643  
     319A      2.556328   320A      2.565714   321A      2.623016  
     322A      2.667003   323A      2.751082   324A      2.755757  
     325A      2.770546   326A      2.778696   327A      2.805538  
     328A      2.807128   329A      2.829269   330A      2.841187  
     331A      2.846798   332A      2.851471   333A      2.867511  
     334A      2.891364   335A      2.905905   336A      2.975153  
     337A      3.009352   338A      3.012437   339A      3.045879  
     340A      3.046645   341A      3.097236   342A      3.099262  
     343A      3.174414   344A      3.191211   345A      3.256710  
     346A      3.286704   347A      3.289665   348A      3.307755  
     349A      3.371774   350A      3.483086   351A      3.547685  
     352A      3.569162   353A      3.732848   354A      3.754890  
     355A      3.887239   356A      3.896829   357A      4.118271  
     358A      4.123037  

    Final Occupation by Irrep:
              A 
    DOCC [    57 ]
    NA   [    57 ]
    NB   [    57 ]

  @DF-RHF Final Energy:  -688.07154386966624

   => Energetics <=

    Nuclear Repulsion Energy =           1014.0626431902518334
    One-Electron Energy =               -2947.7554965380177237
    Two-Electron Energy =                1245.6213094780994197
    Total Energy =                       -688.0715438696663568

Computation Completed


Properties will be evaluated at   0.000000,   0.000000,   0.000000 [a0]

Properties computed using the SCF density matrix


 Multipole Moments:

 ------------------------------------------------------------------------------------
     Multipole            Electronic (a.u.)      Nuclear  (a.u.)        Total (a.u.)
 ------------------------------------------------------------------------------------

 L = 1.  Multiply by 2.5417464519 to convert [e a0] to [Debye]
 Dipole X            :         -0.0000000           -0.0000000           -0.0000000
 Dipole Y            :         -0.0000000            0.0000000           -0.0000000
 Dipole Z            :          2.7978704           -3.2605478           -0.4626774
 Magnitude           :                                                    0.4626774

 ------------------------------------------------------------------------------------

*** tstop() called on DESKTOP-D4OA462 at Thu Nov  9 14:13:38 2023
Module time:
	user time   =        nan seconds =        nan minutes
	system time =        nan seconds =        nan minutes
	total time  =       1693 seconds =      28.22 minutes
Total time:
	user time   =        nan seconds =        nan minutes
	system time =        nan seconds =        nan minutes
	total time  =       1693 seconds =      28.22 minutes
  Constructing Basis Sets for FISAPT...

   => Loading Basis Set <=

    Name: (JUN-CC-PVDZ AUX)
    Role: JKFIT
    Keyword: DF_BASIS_SCF
    atoms 1, 13                     entry O          line   258 file C:\Users\Ivan\.conda\envs\psi4\lib\share\psi4\basis\jun-cc-pvdz-jkfit.gbs 
    atoms 2-7, 14-19, 25, 28        entry C          line   146 file C:\Users\Ivan\.conda\envs\psi4\lib\share\psi4\basis\jun-cc-pvdz-jkfit.gbs 
    atoms 8-12, 20-24, 26-27, 29-30 entry H          line    70 file C:\Users\Ivan\.conda\envs\psi4\lib\share\psi4\basis\jun-cc-pvdz-jkfit.gbs 

   => Loading Basis Set <=

    Name: (JUN-CC-PVDZ AUX)
    Role: RIFIT
    Keyword: DF_BASIS_SAPT
    atoms 1, 13                     entry O          line   188 file C:\Users\Ivan\.conda\envs\psi4\lib\share\psi4\basis\jun-cc-pvdz-ri.gbs 
    atoms 2-7, 14-19, 25, 28        entry C          line   100 file C:\Users\Ivan\.conda\envs\psi4\lib\share\psi4\basis\jun-cc-pvdz-ri.gbs 
    atoms 8-12, 20-24, 26-27, 29-30 entry H          line    30 file C:\Users\Ivan\.conda\envs\psi4\lib\share\psi4\basis\jun-cc-pvdz-ri.gbs 

   => Loading Basis Set <=

    Name: CC-PVTZ-MINAO
    Role: ORBITAL
    Keyword: BASIS
    atoms 1, 13                     entry O          line   179 file C:\Users\Ivan\.conda\envs\psi4\lib\share\psi4\basis\cc-pvtz-minao.gbs 
    atoms 2-7, 14-19, 25, 28        entry C          line   119 file C:\Users\Ivan\.conda\envs\psi4\lib\share\psi4\basis\cc-pvtz-minao.gbs 
    atoms 8-12, 20-24, 26-27, 29-30 entry H          line    20 file C:\Users\Ivan\.conda\envs\psi4\lib\share\psi4\basis\cc-pvtz-minao.gbs 

	 --------------------------------------------
	                    FISAPT0                  
	                  Rob Parrish                
	 --------------------------------------------

    Do F-SAPT =         Yes
    Do Plot   =         Yes
    Memory    =      10.547 [GiB]

  ==> Localization (IBO) <==

  ==> IBO Localizer 2 <==

    MinAO Basis = CC-PVTZ-MINAO
    Use Ghosts  =       FALSE
    Use Stars   =       FALSE
    Condition   =   1.000E-07
    Power       =           4
    Convergence =   1.000E-12
    Maxiter     =         200

    @IBO Iter:                   Metric       Gradient
    @IBO    1:   1.1877979181049267E+00   1.637183E+00
    @IBO    2:   2.1434887325584158E+00   1.506429E+00
    @IBO    3:   2.2013738755057153E+00   6.663177E-01
    @IBO    4:   2.2077190780714311E+00   2.641313E-01
    @IBO    5:   2.2081285328002211E+00   3.722935E-03
    @IBO    6:   2.2081286856323090E+00   2.419352E-04
    @IBO    7:   2.2081286879338240E+00   4.665644E-05
    @IBO    8:   2.2081286880210196E+00   9.277187E-06
    @IBO    9:   2.2081286880244062E+00   1.844567E-06
    @IBO   10:   2.2081286880245403E+00   3.697344E-07
    @IBO   11:   2.2081286880245452E+00   7.501594E-08
    @IBO   12:   2.2081286880245456E+00   1.539546E-08
    @IBO   13:   2.2081286880245456E+00   3.188641E-09
    @IBO   14:   2.2081286880245452E+00   6.650034E-10
    @IBO   15:   2.2081286880245456E+00   1.394398E-10
    @IBO   16:   2.2081286880245452E+00   2.937175E-11
    @IBO   17:   2.2081286880245456E+00   6.212622E-12
    @IBO   18:   2.2081286880245456E+00   1.319208E-12
    @IBO   19:   2.2081286880245452E+00   2.811460E-13

    IBO Localizer 2 converged.

  ==> Partitioning <==

   => Atomic Partitioning <= 

    Monomer A:  12 atoms
    Monomer B:  12 atoms
    Monomer C:   6 atoms

   => Link Bond Identification <=

    Link Bond Selection = AUTOMATIC

    Charge Completeness = 0.800

    Total Link Bonds = 2

    --------------------------
    N     Orb Type Aind1 Aind2
    --------------------------
    1      22   BC    13    25
    2      42   AC     1    28
    --------------------------

   => Link Bond Assignment <=

    Link Bond Assignment      = C

   => Partition Summary <=

    Monomer A:  0 charge,  48 protons,  48 electrons,  24 docc
    Monomer B:  0 charge,  48 protons,  48 electrons,  24 docc
    Monomer C:  0 charge,  18 protons,  18 electrons,   9 docc

  ==> Overlap Integrals <==

  ==> Kinetic Integrals <==

  ==> Nuclear Integrals <==

    Nuclear Repulsion Tot:   1.0140626431902513E+03 [Eh]

  ==> Coulomb Integrals <==

  DFHelper Memory: AOs need 1.353 GiB; user supplied 10.544 GiB. Using in-core AOs.

  ==> MemDFJK: Density-Fitted J/K Matrices <==

    J tasked:                   Yes
    K tasked:                   Yes
    wK tasked:                   No
    OpenMP threads:               1
    Memory [MiB]:             10800
    Algorithm:                 Core
    Schwarz Cutoff:           1E-12
    Mask sparsity (%):      13.2580
    Fitting Condition:        1E-10

   => Auxiliary Basis Set <=

  Basis Set: (JUN-CC-PVDZ AUX)
    Blend: JUN-CC-PVDZ-JKFIT
    Number of shells: 558
    Number of basis functions: 1586
    Number of Cartesian functions: 1806
    Spherical Harmonics?: true
    Max angular momentum: 3

  ==> Relaxed SCF Equations <==

  ==> SCF A: <==

    Maxiter =         100
    E Tol   =   1.000E-08
    D Tol   =   1.000E-08

    Max DIIS Vectors = 10

    Iter   N:                        E          dE         |D|
    Iter   1:  -2.9735397030519204E+02  -2.974E+02   5.973E-04 
    Iter   2:  -2.9736102325223658E+02  -7.053E-03   2.965E-05 DIIS
    Iter   3:  -2.9736110778370772E+02  -8.453E-05   9.231E-06 DIIS
    Iter   4:  -2.9736111462495097E+02  -6.841E-06   4.455E-06 DIIS
    Iter   5:  -2.9736111621341155E+02  -1.588E-06   7.673E-07 DIIS
    Iter   6:  -2.9736111630206972E+02  -8.866E-08   3.153E-07 DIIS
    Iter   7:  -2.9736111631778471E+02  -1.571E-08   9.742E-08 DIIS
    Iter   8:  -2.9736111632020004E+02  -2.415E-09   4.800E-08 DIIS
    Iter   9:  -2.9736111632085721E+02  -6.572E-10   2.276E-08 DIIS
    Iter  10:  -2.9736111632105559E+02  -1.984E-10   7.705E-09 DIIS

    FISAPTSCF Converged.

    Final SCF Energy:  -2.9736111632105559E+02 [Eh]

   => Occupied Orbital Energies <=

       1  -20.585748     2  -11.301925     3  -11.242365  
       4  -11.240819     5  -11.232865     6  -11.228642  
       7  -11.228333     8   -1.228503     9   -1.125956  
      10   -1.019454    11   -0.967981    12   -0.831874  
      13   -0.790130    14   -0.688831    15   -0.651102  
      16   -0.617744    17   -0.590804    18   -0.586390  
      19   -0.570434    20   -0.514670    21   -0.491994  
      22   -0.479932    23   -0.339339    24   -0.312190  

   => Virtual Orbital Energies <=

      25    0.027976    26    0.048022    27    0.059964  
      28    0.062532    29    0.068795    30    0.074395  
      31    0.086717    32    0.087716    33    0.090453  
      34    0.092911    35    0.098379    36    0.108902  
      37    0.110825    38    0.114770    39    0.116356  
      40    0.122244    41    0.126810    42    0.127804  
      43    0.130569    44    0.136240    45    0.144516  
      46    0.148783    47    0.150708    48    0.153928  
      49    0.164413    50    0.168285    51    0.170238  
      52    0.171940    53    0.179253    54    0.182134  
      55    0.185298    56    0.191357    57    0.195047  
      58    0.198702    59    0.202989    60    0.207726  
      61    0.211732    62    0.218496    63    0.219975  
      64    0.226498    65    0.233700    66    0.235585  
      67    0.245574    68    0.249503    69    0.254805  
      70    0.262043    71    0.268317    72    0.269856  
      73    0.277244    74    0.280604    75    0.283669  
      76    0.286362    77    0.296457    78    0.296940  
      79    0.300123    80    0.307210    81    0.312469  
      82    0.316198    83    0.325706    84    0.338526  
      85    0.348237    86    0.356433    87    0.362650  
      88    0.368162    89    0.374057    90    0.379826  
      91    0.387532    92    0.390382    93    0.397681  
      94    0.404208    95    0.414236    96    0.419765  
      97    0.430033    98    0.433890    99    0.435624  
     100    0.438470   101    0.447577   102    0.448422  
     103    0.457239   104    0.467724   105    0.474572  
     106    0.481403   107    0.487395   108    0.494017  
     109    0.500922   110    0.506637   111    0.513159  
     112    0.519818   113    0.528860   114    0.537816  
     115    0.548384   116    0.561460   117    0.565501  
     118    0.583661   119    0.590547   120    0.593803  
     121    0.621241   122    0.633127   123    0.637324  
     124    0.648727   125    0.660685   126    0.695640  
     127    0.713681   128    0.733221   129    0.740839  
     130    0.758729   131    0.770558   132    0.781577  
     133    0.795606   134    0.804026   135    0.812949  
     136    0.826988   137    0.834789   138    0.851269  
     139    0.868670   140    0.879348   141    0.890706  
     142    0.908883   143    0.917271   144    0.923001  
     145    0.930900   146    0.935121   147    0.946546  
     148    0.951495   149    0.960745   150    0.965512  
     151    0.974005   152    0.978976   153    0.981586  
     154    0.989933   155    0.991957   156    1.009201  
     157    1.013238   158    1.026723   159    1.044754  
     160    1.055773   161    1.074910   162    1.096273  
     163    1.108440   164    1.121386   165    1.128302  
     166    1.137104   167    1.164103   168    1.170438  
     169    1.180269   170    1.209217   171    1.225106  
     172    1.248473   173    1.256833   174    1.262316  
     175    1.266930   176    1.274981   177    1.278540  
     178    1.285310   179    1.319724   180    1.337570  
     181    1.345056   182    1.366654   183    1.376762  
     184    1.400255   185    1.418431   186    1.484891  
     187    1.514047   188    1.521602   189    1.533273  
     190    1.563633   191    1.622290   192    1.641519  
     193    1.653682   194    1.661825   195    1.674288  
     196    1.707600   197    1.723099   198    1.746286  
     199    1.760253   200    1.765286   201    1.770171  
     202    1.774766   203    1.795279   204    1.797319  
     205    1.802042   206    1.808597   207    1.826378  
     208    1.849703   209    1.859146   210    1.880505  
     211    1.886136   212    1.906637   213    1.911501  
     214    1.919324   215    1.925222   216    1.933423  
     217    1.947034   218    1.948976   219    1.956352  
     220    1.964551   221    1.980694   222    1.986873  
     223    1.988539   224    1.996730   225    2.005527  
     226    2.015791   227    2.027151   228    2.032904  
     229    2.043990   230    2.050720   231    2.059713  
     232    2.067060   233    2.080434   234    2.093793  
     235    2.109328   236    2.110766   237    2.115879  
     238    2.133099   239    2.136860   240    2.142958  
     241    2.153506   242    2.160283   243    2.180031  
     244    2.186134   245    2.187440   246    2.194121  
     247    2.197533   248    2.207394   249    2.220243  
     250    2.227348   251    2.252606   252    2.257722  
     253    2.272996   254    2.274498   255    2.279420  
     256    2.303313   257    2.305360   258    2.320151  
     259    2.329900   260    2.339536   261    2.349580  
     262    2.376020   263    2.404960   264    2.420662  
     265    2.432576   266    2.441138   267    2.458068  
     268    2.472543   269    2.498001   270    2.517799  
     271    2.521327   272    2.527804   273    2.537457  
     274    2.547256   275    2.571886   276    2.578759  
     277    2.594044   278    2.602816   279    2.655383  
     280    2.668457   281    2.678018   282    2.705535  
     283    2.771134   284    2.778189   285    2.785671  
     286    2.799414   287    2.813820   288    2.816692  
     289    2.834578   290    2.848006   291    2.857803  
     292    2.877361   293    2.893309   294    2.909266  
     295    2.937324   296    2.963456   297    3.017640  
     298    3.043654   299    3.052427   300    3.054068  
     301    3.090630   302    3.106895   303    3.120364  
     304    3.135343   305    3.137953   306    3.187884  
     307    3.195923   308    3.250064   309    3.276583  
     310    3.296775   311    3.304563   312    3.407157  
     313    3.453204   314    3.473710   315    3.549069  
     316    3.565998   317    3.567997   318    3.648829  
     319    3.696113   320    3.754603   321    3.852528  
     322    3.902706   323    4.128261   324    4.143421  
     325    4.275909   326    4.310686   327    4.324808  
     328    4.352896   329    4.439494   330    4.538576  
     331    4.572342   332    4.767480   333    4.925789  
     334    5.048684   335    5.105180   336    5.379814  
     337    5.410266   338    5.461713   339    5.479407  
     340    5.556693   341    5.696697   342    6.016946  
     343   17.970556   344   18.122143   345   18.132334  
     346   18.580687   347   18.609310   348   19.263551  
     349   26.459076  

  ==> SCF B: <==

    Maxiter =         100
    E Tol   =   1.000E-08
    D Tol   =   1.000E-08

    Max DIIS Vectors = 10

    Iter   N:                        E          dE         |D|
    Iter   1:  -2.9735397030454340E+02  -2.974E+02   5.973E-04 
    Iter   2:  -2.9736102325158998E+02  -7.053E-03   2.965E-05 DIIS
    Iter   3:  -2.9736110778306170E+02  -8.453E-05   9.231E-06 DIIS
    Iter   4:  -2.9736111462430472E+02  -6.841E-06   4.455E-06 DIIS
    Iter   5:  -2.9736111621276456E+02  -1.588E-06   7.673E-07 DIIS
    Iter   6:  -2.9736111630142335E+02  -8.866E-08   3.153E-07 DIIS
    Iter   7:  -2.9736111631713987E+02  -1.572E-08   9.742E-08 DIIS
    Iter   8:  -2.9736111631955418E+02  -2.414E-09   4.800E-08 DIIS
    Iter   9:  -2.9736111632021147E+02  -6.573E-10   2.276E-08 DIIS
    Iter  10:  -2.9736111632040996E+02  -1.985E-10   7.705E-09 DIIS

    FISAPTSCF Converged.

    Final SCF Energy:  -2.9736111632040996E+02 [Eh]

   => Occupied Orbital Energies <=

       1  -20.585748     2  -11.301925     3  -11.242365  
       4  -11.240819     5  -11.232865     6  -11.228642  
       7  -11.228333     8   -1.228503     9   -1.125956  
      10   -1.019454    11   -0.967981    12   -0.831874  
      13   -0.790130    14   -0.688831    15   -0.651102  
      16   -0.617744    17   -0.590804    18   -0.586390  
      19   -0.570434    20   -0.514670    21   -0.491994  
      22   -0.479932    23   -0.339339    24   -0.312190  

   => Virtual Orbital Energies <=

      25    0.027976    26    0.048022    27    0.059964  
      28    0.062532    29    0.068795    30    0.074395  
      31    0.086717    32    0.087716    33    0.090453  
      34    0.092911    35    0.098379    36    0.108902  
      37    0.110825    38    0.114770    39    0.116356  
      40    0.122244    41    0.126810    42    0.127804  
      43    0.130569    44    0.136240    45    0.144516  
      46    0.148783    47    0.150708    48    0.153928  
      49    0.164413    50    0.168285    51    0.170238  
      52    0.171940    53    0.179253    54    0.182134  
      55    0.185298    56    0.191357    57    0.195047  
      58    0.198702    59    0.202989    60    0.207726  
      61    0.211732    62    0.218496    63    0.219975  
      64    0.226498    65    0.233700    66    0.235585  
      67    0.245574    68    0.249503    69    0.254805  
      70    0.262043    71    0.268317    72    0.269856  
      73    0.277244    74    0.280604    75    0.283669  
      76    0.286362    77    0.296457    78    0.296940  
      79    0.300123    80    0.307210    81    0.312469  
      82    0.316198    83    0.325706    84    0.338526  
      85    0.348237    86    0.356433    87    0.362650  
      88    0.368162    89    0.374057    90    0.379826  
      91    0.387532    92    0.390382    93    0.397681  
      94    0.404208    95    0.414236    96    0.419765  
      97    0.430033    98    0.433890    99    0.435624  
     100    0.438470   101    0.447577   102    0.448422  
     103    0.457239   104    0.467724   105    0.474572  
     106    0.481403   107    0.487395   108    0.494017  
     109    0.500922   110    0.506637   111    0.513159  
     112    0.519818   113    0.528860   114    0.537816  
     115    0.548384   116    0.561460   117    0.565501  
     118    0.583661   119    0.590547   120    0.593803  
     121    0.621241   122    0.633127   123    0.637324  
     124    0.648727   125    0.660685   126    0.695640  
     127    0.713681   128    0.733221   129    0.740839  
     130    0.758729   131    0.770558   132    0.781577  
     133    0.795605   134    0.804026   135    0.812949  
     136    0.826988   137    0.834789   138    0.851269  
     139    0.868670   140    0.879348   141    0.890706  
     142    0.908883   143    0.917271   144    0.923001  
     145    0.930900   146    0.935121   147    0.946546  
     148    0.951495   149    0.960745   150    0.965512  
     151    0.974005   152    0.978976   153    0.981586  
     154    0.989933   155    0.991957   156    1.009201  
     157    1.013238   158    1.026723   159    1.044754  
     160    1.055773   161    1.074910   162    1.096273  
     163    1.108440   164    1.121386   165    1.128302  
     166    1.137104   167    1.164103   168    1.170438  
     169    1.180269   170    1.209217   171    1.225106  
     172    1.248473   173    1.256833   174    1.262316  
     175    1.266930   176    1.274981   177    1.278540  
     178    1.285310   179    1.319724   180    1.337570  
     181    1.345056   182    1.366654   183    1.376762  
     184    1.400255   185    1.418431   186    1.484891  
     187    1.514047   188    1.521602   189    1.533273  
     190    1.563633   191    1.622290   192    1.641519  
     193    1.653682   194    1.661825   195    1.674288  
     196    1.707600   197    1.723099   198    1.746286  
     199    1.760253   200    1.765286   201    1.770171  
     202    1.774766   203    1.795279   204    1.797319  
     205    1.802042   206    1.808597   207    1.826378  
     208    1.849703   209    1.859146   210    1.880505  
     211    1.886136   212    1.906637   213    1.911501  
     214    1.919324   215    1.925222   216    1.933423  
     217    1.947034   218    1.948976   219    1.956352  
     220    1.964551   221    1.980694   222    1.986873  
     223    1.988539   224    1.996730   225    2.005527  
     226    2.015791   227    2.027151   228    2.032904  
     229    2.043990   230    2.050720   231    2.059713  
     232    2.067060   233    2.080434   234    2.093793  
     235    2.109328   236    2.110766   237    2.115879  
     238    2.133099   239    2.136860   240    2.142958  
     241    2.153506   242    2.160283   243    2.180031  
     244    2.186134   245    2.187440   246    2.194121  
     247    2.197533   248    2.207394   249    2.220243  
     250    2.227348   251    2.252606   252    2.257722  
     253    2.272996   254    2.274498   255    2.279420  
     256    2.303313   257    2.305360   258    2.320151  
     259    2.329900   260    2.339536   261    2.349580  
     262    2.376020   263    2.404960   264    2.420662  
     265    2.432576   266    2.441138   267    2.458068  
     268    2.472543   269    2.498001   270    2.517799  
     271    2.521327   272    2.527804   273    2.537457  
     274    2.547256   275    2.571886   276    2.578759  
     277    2.594044   278    2.602816   279    2.655383  
     280    2.668457   281    2.678018   282    2.705535  
     283    2.771134   284    2.778189   285    2.785671  
     286    2.799414   287    2.813820   288    2.816692  
     289    2.834578   290    2.848006   291    2.857803  
     292    2.877361   293    2.893309   294    2.909266  
     295    2.937324   296    2.963456   297    3.017640  
     298    3.043654   299    3.052427   300    3.054068  
     301    3.090630   302    3.106895   303    3.120364  
     304    3.135343   305    3.137953   306    3.187884  
     307    3.195923   308    3.250064   309    3.276583  
     310    3.296775   311    3.304563   312    3.407157  
     313    3.453204   314    3.473710   315    3.549069  
     316    3.565998   317    3.567997   318    3.648829  
     319    3.696113   320    3.754603   321    3.852528  
     322    3.902706   323    4.128261   324    4.143421  
     325    4.275909   326    4.310686   327    4.324808  
     328    4.352896   329    4.439494   330    4.538576  
     331    4.572342   332    4.767480   333    4.925789  
     334    5.048684   335    5.105180   336    5.379814  
     337    5.410266   338    5.461713   339    5.479407  
     340    5.556693   341    5.696697   342    6.016946  
     343   17.970556   344   18.122143   345   18.132334  
     346   18.580687   347   18.609310   348   19.263551  
     349   26.459076  

  ==> Frozen Core <==


    ------------------
    Range      A     B
    ------------------
    nbf      358   358
    nmo      349   349
    nocc      24    24
    nvir     325   325
    nfocc      7     7
    naocc     17    17
    navir    325   325
    nfvir      0     0
    ------------------

  ==> Unification <==

  ==> dHF <==

    E ABC(HF) =  -6.8807154386966624E+02 [Eh]
    E AC(0)   =  -3.8088999626590220E+02 [Eh]
    E BC(0)   =  -3.8088999626568318E+02 [Eh]
    E A(0)    =  -2.8266538206744383E+02 [Eh]
    E B(0)    =  -2.8266538206710584E+02 [Eh]
    E AC(HF)  =  -3.8088285025003893E+02 [Eh]
    E BC(HF)  =  -3.8088285024981690E+02 [Eh]
    E AB(HF)  =  -5.6531325063084080E+02 [Eh]
    E A(HF)   =  -2.8265085729053055E+02 [Eh]
    E B(HF)   =  -2.8265085729022871E+02 [Eh]
    E C       =  -7.3705692680267873E+01 [Eh]
    E HF      =   2.7559816512621182E-03 [Eh]

  ==> Electrostatics <==

    Elst10,r            =     0.000576049124 [Eh]

  ==> Exchange <==

    Exch10(S^2)         =     0.004230738330 [Eh]
    Exch10              =     0.004237102492 [Eh]

  ==> Induction <==

    Ind20,u (A<-B)      =    -0.001903619689 [Eh]
    Ind20,u (B<-A)      =    -0.001903619688 [Eh]
    Ind20,u             =    -0.003807239377 [Eh]
    Exch-Ind20,u (A<-B) =     0.001222579602 [Eh]
    Exch-Ind20,u (B<-A) =     0.001222579600 [Eh]
    Exch-Ind20,u        =     0.002445159202 [Eh]

  ==> CPHF Iterations <==

    Maxiter     =         100
    Convergence =   1.000E-08

    -----------------------------------------
    Iter   Monomer A    Monomer B    Time [s]
    -----------------------------------------
    1      1.206E-01    1.206E-01           2
    2      4.548E-02    4.548E-02           4
    3      1.063E-02    1.063E-02           6
    4      4.257E-03    4.257E-03           8
    5      8.911E-04    8.911E-04          10
    6      3.695E-04    3.695E-04          11
    7      1.529E-04    1.529E-04          13
    8      6.962E-05    6.962E-05          15
    9      2.397E-05    2.397E-05          17
    10     8.892E-06    8.892E-06          19
    11     2.072E-06    2.072E-06          21
    12     3.961E-07    3.961E-07          23
    13     1.713E-07    1.713E-07          25
    14     3.398E-08    3.398E-08          27
    15     1.514E-08    1.514E-08          29
    16     5.939E-09*   5.939E-09*         31
    -----------------------------------------

    Ind20,r (A<-B)      =    -0.002155821675 [Eh]
    Ind20,r (B<-A)      =    -0.002155821674 [Eh]
    Ind20,r             =    -0.004311643348 [Eh]
    Exch-Ind20,r (A<-B) =     0.001399051378 [Eh]
    Exch-Ind20,r (B<-A) =     0.001399051376 [Eh]
    Exch-Ind20,r        =     0.002798102755 [Eh]

  ==> F-SAPT Localization (IBO) <==

  Local Orbitals for Monomer A:

  ==> IBO Localizer 2 <==

    MinAO Basis = CC-PVTZ-MINAO
    Use Ghosts  =       FALSE
    Use Stars   =       FALSE
    Condition   =   1.000E-07
    Power       =           4
    Convergence =   1.000E-12
    Maxiter     =        1000

    @IBO Iter:                   Metric       Gradient
    @IBO    1:   1.6163593399731313E+00   1.536067E+00
    @IBO    2:   1.7417932693865570E+00   8.768242E-01
    @IBO    3:   1.7902679930799574E+00   3.617969E-01
    @IBO    4:   1.7949773885880920E+00   4.622047E-02
    @IBO    5:   1.7950169422467681E+00   1.035571E-03
    @IBO    6:   1.7950170118996802E+00   1.966510E-04
    @IBO    7:   1.7950170146410012E+00   4.052240E-05
    @IBO    8:   1.7950170147585747E+00   8.412570E-06
    @IBO    9:   1.7950170147636451E+00   1.748760E-06
    @IBO   10:   1.7950170147638649E+00   3.646378E-07
    @IBO   11:   1.7950170147638749E+00   7.629724E-08
    @IBO   12:   1.7950170147638749E+00   1.602863E-08
    @IBO   13:   1.7950170147638749E+00   3.382571E-09
    @IBO   14:   1.7950170147638753E+00   7.174380E-10
    @IBO   15:   1.7950170147638751E+00   1.530043E-10
    @IBO   16:   1.7950170147638751E+00   3.281992E-11
    @IBO   17:   1.7950170147638749E+00   7.081588E-12
    @IBO   18:   1.7950170147638749E+00   1.536846E-12
    @IBO   19:   1.7950170147638749E+00   3.353385E-13

    IBO Localizer 2 converged.

  Local Orbitals for Monomer B:

  ==> IBO Localizer 2 <==

    MinAO Basis = CC-PVTZ-MINAO
    Use Ghosts  =       FALSE
    Use Stars   =       FALSE
    Condition   =   1.000E-07
    Power       =           4
    Convergence =   1.000E-12
    Maxiter     =        1000

    @IBO Iter:                   Metric       Gradient
    @IBO    1:   1.6163593467772581E+00   1.536067E+00
    @IBO    2:   1.7417932693995828E+00   8.768242E-01
    @IBO    3:   1.7902679930823746E+00   3.617969E-01
    @IBO    4:   1.7949773885885938E+00   4.622047E-02
    @IBO    5:   1.7950169422471920E+00   1.035571E-03
    @IBO    6:   1.7950170119001041E+00   1.966510E-04
    @IBO    7:   1.7950170146414248E+00   4.052240E-05
    @IBO    8:   1.7950170147589983E+00   8.412570E-06
    @IBO    9:   1.7950170147640687E+00   1.748760E-06
    @IBO   10:   1.7950170147642885E+00   3.646378E-07
    @IBO   11:   1.7950170147642985E+00   7.629724E-08
    @IBO   12:   1.7950170147642990E+00   1.602863E-08
    @IBO   13:   1.7950170147642985E+00   3.382571E-09
    @IBO   14:   1.7950170147642988E+00   7.174380E-10
    @IBO   15:   1.7950170147642985E+00   1.530043E-10
    @IBO   16:   1.7950170147642990E+00   3.281992E-11
    @IBO   17:   1.7950170147642988E+00   7.081580E-12
    @IBO   18:   1.7950170147642988E+00   1.536850E-12
    @IBO   19:   1.7950170147642988E+00   3.353509E-13

    IBO Localizer 2 converged.

  ==> F-SAPT Electrostatics <==

  DFHelper Memory: AOs need 1.554 GiB; user supplied 10.547 GiB. Using in-core AOs.

  ==> DFHelper <==
    NBF:                             358
    NAux:                           1586
    Schwarz Cutoff:                1E-12
    Mask sparsity (%):                13
    DFH Avail. Memory [GiB]:      10.547
    OpenMP threads:                    1
    Algorithm:                DIRECT_iaQ
    AO Core:                        True
    MO Core:                       False
    Hold Metric:                   False
    Metric Power:                 -0.500
    Fitting Condition:             1E-12
    Q Shell Max:                       7


    Elst10,r            =     0.000576049254 [Eh]

  ==> F-SAPT Exchange <==

    Exch10(S^2)         =     0.004230738330 [Eh]

    Scaling F-SAPT Exch10(S^2) by   1.002E+00 to match Exch10

  ==> F-SAPT Induction <==

    Ind20,u (A<-B)      =    -0.001903619688 [Eh]
    Ind20,u (B<-A)      =    -0.001903619687 [Eh]
    Ind20,u             =    -0.003807239375 [Eh]
    Exch-Ind20,u (A<-B) =     0.001222579602 [Eh]
    Exch-Ind20,u (B<-A) =     0.001222579600 [Eh]
    Exch-Ind20,u        =     0.002445159202 [Eh]

    Scaling for delta HF        =   1.359E+00
    Scaling for response (A<-B) =   1.111E+00
    Scaling for response (B<-A) =   1.111E+00
    Scaling for total (A<-B)    =   1.510E+00
    Scaling for total (B<-A)    =   1.510E+00

  ==> F-SAPT Dispersion <==

  DFHelper Memory: AOs need 1.213 GiB; user supplied 10.541 GiB. Using in-core AOs.

  ==> DFHelper <==
    NBF:                             358
    NAux:                           1236
    Schwarz Cutoff:                1E-12
    Mask sparsity (%):                13
    DFH Avail. Memory [GiB]:      10.541
    OpenMP threads:                    1
    Algorithm:                DIRECT_iaQ
    AO Core:                        True
    MO Core:                       False
    Hold Metric:                   False
    Metric Power:                 -0.500
    Fitting Condition:             1E-12
    Q Shell Max:                       7


    1415577600 doubles - 1587685 overhead leaves 1413989915 for dispersion
    Processing a single (r,s) pair requires 168096 doubles
    325 values of r processed in 1 blocks of 325
    325 values of s processed in 1 blocks of 325

    Disp20              =    -0.003451207391 [Eh]
    Exch-Disp20         =     0.000255999627 [Eh]

  ==> F-SAPT Output <==

    F-SAPT Data Filepath = fsapt/

  ==> Scalar Field Plots <==

    F-SAPT Plot Filepath = plot/

  ==> CubicScalarGrid <==

    Filepath     = plot/
    Total Points =           886512
    XYZ Blocking =               10
    X Points     =              146
    Y Points     =               66
    Z Points     =               92
    X Spacing    =        2.000E-01
    Y Spacing    =        2.000E-01
    Z Spacing    =        2.000E-01
    X Minimum    =       -1.450E+01
    Y Minimum    =       -6.500E+00
    Z Minimum    =       -9.451E+00
    X Maximum    =        1.450E+01
    Y Maximum    =        6.500E+00
    Z Maximum    =        8.749E+00

  Basis Set: JUN-CC-PVDZ
    Blend: JUN-CC-PVDZ
    Number of shells: 170
    Number of basis functions: 358
    Number of Cartesian functions: 374
    Spherical Harmonics?: true
    Max angular momentum: 2

*********************************************************************************************************************
When computing potential integrals with different bra and ket basis, the atom definition is taken from the bra basis.
*********************************************************************************************************************
*********************************************************************************************************************
When computing potential integrals with different bra and ket basis, the atom definition is taken from the bra basis.
*********************************************************************************************************************
*********************************************************************************************************************
When computing potential integrals with different bra and ket basis, the atom definition is taken from the bra basis.
*********************************************************************************************************************
  ==> Results <==


    SAPT Results  
  --------------------------------------------------------------------------------------------------------
    Electrostatics                  0.57604912 [mEh]       0.36147628 [kcal/mol]       1.51241677 [kJ/mol]
      Elst10,r                      0.57604912 [mEh]       0.36147628 [kcal/mol]       1.51241677 [kJ/mol]

    Exchange                        4.23710249 [mEh]       2.65882196 [kcal/mol]      11.12451106 [kJ/mol]
      Exch10                        4.23710249 [mEh]       2.65882196 [kcal/mol]      11.12451106 [kJ/mol]
      Exch10(S^2)                   4.23073833 [mEh]       2.65482838 [kcal/mol]      11.10780196 [kJ/mol]

    Induction                      -2.05716997 [mEh]      -1.29089364 [kcal/mol]      -5.40109900 [kJ/mol]
      Ind20,r                      -4.31164335 [mEh]      -2.70559705 [kcal/mol]     -11.32021805 [kJ/mol]
      Exch-Ind20,r                  2.79810275 [mEh]       1.75583599 [kcal/mol]       7.34641777 [kJ/mol]
      delta HF,r (2)               -0.54362937 [mEh]      -0.34113258 [kcal/mol]      -1.42729872 [kJ/mol]
      Induction (A<-B)             -1.02858498 [mEh]      -0.64544682 [kcal/mol]      -2.70054950 [kJ/mol]
      Induction (B<-A)             -1.02858498 [mEh]      -0.64544682 [kcal/mol]      -2.70054950 [kJ/mol]

    Dispersion                     -3.19520776 [mEh]      -2.00502314 [kcal/mol]      -8.38901683 [kJ/mol]
      Disp20                       -3.45120739 [mEh]      -2.16566533 [kcal/mol]      -9.06114376 [kJ/mol]
      Exch-Disp20                   0.25599963 [mEh]       0.16064219 [kcal/mol]       0.67212693 [kJ/mol]

  Total HF                          2.75598165 [mEh]       1.72940460 [kcal/mol]       7.23582883 [kJ/mol]
  Total SAPT0                      -0.43922611 [mEh]      -0.27561855 [kcal/mol]      -1.15318800 [kJ/mol]

  --------------------------------------------------------------------------------------------------------
    Han Solo: This is *not* gonna work.
    Luke Skywalker: Why didn't you say so before?
    Han Solo: I *did* say so before.

    Psi4 stopped on: Thursday, 09 November 2023 02:24PM
    Psi4 wall time for execution: 0:39:12.93

*** Psi4 exiting successfully. Buy a developer a beer!
