
    -----------------------------------------------------------------------
          Psi4: An Open-Source Ab Initio Electronic Structure Package
                               Psi4 1.7 release

                         Git: Rev {HEAD} 6ce35a5 


    D. G. A. Smith, L. A. Burns, A. C. Simmonett, R. M. Parrish,
    M. C. Schieber, R. Galvelis, P. Kraus, H. Kruse, R. Di Remigio,
    A. Alenaizan, A. M. James, S. Lehtola, J. P. Misiewicz, M. Scheurer,
    R. A. Shaw, J. B. Schriber, Y. Xie, Z. L. Glick, D. A. Sirianni,
    J. S. O'Brien, J. M. Waldrop, A. Kumar, E. G. Hohenstein,
    B. P. Pritchard, B. R. Brooks, H. F. Schaefer III, A. Yu. Sokolov,
    K. Patkowski, A. E. DePrince III, U. Bozkaya, R. A. King,
    F. A. Evangelista, J. M. Turney, T. D. Crawford, C. D. Sherrill,
    J. Chem. Phys. 152(18) 184108 (2020). https://doi.org/10.1063/5.0006002

                            Additional Code Authors
    E. T. Seidl, C. L. Janssen, E. F. Valeev, M. L. Leininger,
    J. F. Gonthier, R. M. Richard, H. R. McAlexander, M. Saitow, X. Wang,
    P. Verma, M. H. Lechner, A. Jiang, S. Behnle, A. G. Heide,
    M. F. Herbst, and D. L. Poole

             Previous Authors, Complete List of Code Contributors,
                       and Citations for Specific Modules
    https://github.com/psi4/psi4/blob/master/codemeta.json
    https://github.com/psi4/psi4/graphs/contributors
    http://psicode.org/psi4manual/master/introduction.html#citing-psifour

    -----------------------------------------------------------------------


    Psi4 started on: Thursday, 09 November 2023 02:24PM

    Process ID: 1068
    Host:       DESKTOP-D4OA462
    PSIDATADIR: C:\Users\Ivan\.conda\envs\psi4\lib\share\psi4
    Memory:     500.0 MiB
    Threads:    1
    
  ==> Input File <==

--------------------------------------------------------------------------
memory 12000 MiB
mol = psi4.core.Molecule.from_arrays(
    elez=[8,6,6,6,6,6,6,1,1,1,1,1,8,6,6,6,6,6,6,1,1,1,1,1,6,1,1,6,1,1],
    fragment_separators=[12, 24],
    fix_com=True,
    fix_orientation=True,
    fix_symmetry='c1',
    fragment_multiplicities=[2, 2, 1],
    molecular_charge=0,
    molecular_multiplicity=1,
    geom= [
       -1.578805491,      0.810198587,      0.000000000,
       -2.910138188,      0.557174719,      0.000000000,
       -3.743437659,      1.673667716,      0.000000000,
       -3.460315875,     -0.719727095,      0.000000000,
       -5.115026231,      1.510325480,      0.000000000,
       -4.842626548,     -0.866584214,      0.000000000,
       -5.675809255,      0.237760210,      0.000000000,
       -3.291432781,      2.657611877,      0.000000000,
       -2.829636616,     -1.597587855,      0.000000000,
       -5.754120995,      2.385125558,      0.000000000,
       -5.265047744,     -1.864407986,      0.000000000,
       -6.750994526,      0.112693614,      0.000000000,
                                                        
        1.578805491,     -0.810198587,      0.000000000,
        2.910138188,     -0.557174719,      0.000000000,
        3.743437659,     -1.673667716,      0.000000000,
        3.460315875,      0.719727095,      0.000000000,
        5.115026231,     -1.510325480,      0.000000000,
        4.842626548,      0.866584214,      0.000000000,
        5.675809255,     -0.237760210,      0.000000000,
        3.291432781,     -2.657611877,      0.000000000,
        2.829636616,      1.597587855,      0.000000000,
        5.754120995,     -2.385125558,      0.000000000,
        5.265047744,      1.864407986,      0.000000000,
        6.750994526,     -0.112693614,      0.000000000,
                                                        
       -0.698156975,     -0.285846192,      0.000000000,
       -0.846502280,     -0.910104622,      0.888024454,
       -0.846502280,     -0.910104622,     -0.888024454,
        0.698156975,      0.285846192,      0.000000000,
        0.846502280,      0.910104622,     -0.888024454,
        0.846502280,      0.910104622,      0.888024454])
activate(mol)       
                    
set {               
basis jun-cc-pvdz   
scf_type df
guess sad
freeze_core true
fisapt_do_plot true
}
energy('fisapt0')
--------------------------------------------------------------------------

  Memory set to  11.719 GiB by Python driver.

Scratch directory: C:\Users\Ivan\AppData\Local\Temp/

*** tstart() called on DESKTOP-D4OA462
*** at Thu Nov  9 14:24:40 2023

   => Loading Basis Set <=

    Name: JUN-CC-PVDZ
    Role: ORBITAL
    Keyword: BASIS
    atoms 1, 13                     entry O          line   232 file C:\Users\Ivan\.conda\envs\psi4\lib\share\psi4\basis\jun-cc-pvdz.gbs 
    atoms 2-7, 14-19, 25, 28        entry C          line   164 file C:\Users\Ivan\.conda\envs\psi4\lib\share\psi4\basis\jun-cc-pvdz.gbs 
    atoms 8-12, 20-24, 26-27, 29-30 entry H          line    36 file C:\Users\Ivan\.conda\envs\psi4\lib\share\psi4\basis\jun-cc-pvdz.gbs 


         ---------------------------------------------------------
                                   SCF
               by Justin Turney, Rob Parrish, Andy Simmonett
                          and Daniel G. A. Smith
                              RHF Reference
                        1 Threads,   -288 MiB Core
         ---------------------------------------------------------

  ==> Geometry <==

    Molecular point group: c1
    Full point group: C2h

    Geometry (in Angstrom), charge = 0, multiplicity = 1:

       Center              X                  Y                   Z               Mass       
    ------------   -----------------  -----------------  -----------------  -----------------
         O           -1.578805491000     0.810198587000     0.000000000000    15.994914619570
         C           -2.910138188000     0.557174719000     0.000000000000    12.000000000000
         C           -3.743437659000     1.673667716000     0.000000000000    12.000000000000
         C           -3.460315875000    -0.719727095000     0.000000000000    12.000000000000
         C           -5.115026231000     1.510325480000     0.000000000000    12.000000000000
         C           -4.842626548000    -0.866584214000     0.000000000000    12.000000000000
         C           -5.675809255000     0.237760210000     0.000000000000    12.000000000000
         H           -3.291432781000     2.657611877000     0.000000000000     1.007825032230
         H           -2.829636616000    -1.597587855000     0.000000000000     1.007825032230
         H           -5.754120995000     2.385125558000     0.000000000000     1.007825032230
         H           -5.265047744000    -1.864407986000     0.000000000000     1.007825032230
         H           -6.750994526000     0.112693614000     0.000000000000     1.007825032230
         O            1.578805491000    -0.810198587000     0.000000000000    15.994914619570
         C            2.910138188000    -0.557174719000     0.000000000000    12.000000000000
         C            3.743437659000    -1.673667716000     0.000000000000    12.000000000000
         C            3.460315875000     0.719727095000     0.000000000000    12.000000000000
         C            5.115026231000    -1.510325480000     0.000000000000    12.000000000000
         C            4.842626548000     0.866584214000     0.000000000000    12.000000000000
         C            5.675809255000    -0.237760210000     0.000000000000    12.000000000000
         H            3.291432781000    -2.657611877000     0.000000000000     1.007825032230
         H            2.829636616000     1.597587855000     0.000000000000     1.007825032230
         H            5.754120995000    -2.385125558000     0.000000000000     1.007825032230
         H            5.265047744000     1.864407986000     0.000000000000     1.007825032230
         H            6.750994526000    -0.112693614000     0.000000000000     1.007825032230
         C           -0.698156975000    -0.285846192000     0.000000000000    12.000000000000
         H           -0.846502280000    -0.910104622000     0.888024454000     1.007825032230
         H           -0.846502280000    -0.910104622000    -0.888024454000     1.007825032230
         C            0.698156975000     0.285846192000     0.000000000000    12.000000000000
         H            0.846502280000     0.910104622000    -0.888024454000     1.007825032230
         H            0.846502280000     0.910104622000     0.888024454000     1.007825032230

  Running in c1 symmetry.

  Rotational constants: A =      0.08492  B =      0.00532  C =      0.00501 [cm^-1]
  Rotational constants: A =   2545.92923  B =    159.38048  C =    150.27432 [MHz]
  Nuclear repulsion =  962.219238571840151

  Charge       = 0
  Multiplicity = 1
  Electrons    = 114
  Nalpha       = 57
  Nbeta        = 57

  ==> Algorithm <==

  SCF Algorithm Type is DF.
  DIIS enabled.
  MOM disabled.
  Fractional occupation disabled.
  Guess Type is SAD.
  Energy threshold   = 1.00e-08
  Density threshold  = 1.00e-08
  Integral threshold = 1.00e-12

  ==> Primary Basis <==

  Basis Set: JUN-CC-PVDZ
    Blend: JUN-CC-PVDZ
    Number of shells: 170
    Number of basis functions: 358
    Number of Cartesian functions: 374
    Spherical Harmonics?: true
    Max angular momentum: 2

   => Loading Basis Set <=

    Name: (JUN-CC-PVDZ AUX)
    Role: JKFIT
    Keyword: DF_BASIS_SCF
    atoms 1, 13                     entry O          line   258 file C:\Users\Ivan\.conda\envs\psi4\lib\share\psi4\basis\jun-cc-pvdz-jkfit.gbs 
    atoms 2-7, 14-19, 25, 28        entry C          line   146 file C:\Users\Ivan\.conda\envs\psi4\lib\share\psi4\basis\jun-cc-pvdz-jkfit.gbs 
    atoms 8-12, 20-24, 26-27, 29-30 entry H          line    70 file C:\Users\Ivan\.conda\envs\psi4\lib\share\psi4\basis\jun-cc-pvdz-jkfit.gbs 

  ==> Integral Setup <==

  DFHelper Memory: AOs need 1.237 GiB; user supplied 8.789 GiB. Using in-core AOs.

  ==> MemDFJK: Density-Fitted J/K Matrices <==

    J tasked:                   Yes
    K tasked:                   Yes
    wK tasked:                   No
    OpenMP threads:               1
    Memory [MiB]:              9000
    Algorithm:                 Core
    Schwarz Cutoff:           1E-12
    Mask sparsity (%):      20.9279
    Fitting Condition:        1E-10

   => Auxiliary Basis Set <=

  Basis Set: (JUN-CC-PVDZ AUX)
    Blend: JUN-CC-PVDZ-JKFIT
    Number of shells: 558
    Number of basis functions: 1586
    Number of Cartesian functions: 1806
    Spherical Harmonics?: true
    Max angular momentum: 3

  Minimum eigenvalue in the overlap matrix is 6.7472245698E-06.
  Reciprocal condition number of the overlap matrix is 5.4502180253E-07.
    Using symmetric orthogonalization.

  ==> Pre-Iterations <==

  SCF Guess: Superposition of Atomic Densities via on-the-fly atomic UHF (no occupation information).

   -------------------------
    Irrep   Nso     Nmo    
   -------------------------
     A        358     358 
   -------------------------
    Total     358     358
   -------------------------

  ==> Iterations <==

                           Total Energy        Delta E     RMS |[F,P]|

   @DF-RHF iter SAD:  -687.60367023891581   -6.87604e+02   0.00000e+00 
   @DF-RHF iter   1:  -687.67861134889858   -7.49411e-02   2.19597e-03 DIIS/ADIIS
   @DF-RHF iter   2:  -688.01360201979162   -3.34991e-01   9.69136e-04 DIIS/ADIIS
   @DF-RHF iter   3:  -688.07611531716020   -6.25133e-02   1.95990e-04 DIIS/ADIIS
   @DF-RHF iter   4:  -688.08008746371945   -3.97215e-03   6.83845e-05 DIIS
   @DF-RHF iter   5:  -688.08042900495821   -3.41541e-04   1.46174e-05 DIIS
   @DF-RHF iter   6:  -688.08045505184600   -2.60469e-05   5.15962e-06 DIIS
   @DF-RHF iter   7:  -688.08045835606833   -3.30422e-06   1.71157e-06 DIIS
   @DF-RHF iter   8:  -688.08045889889013   -5.42822e-07   5.59299e-07 DIIS
   @DF-RHF iter   9:  -688.08045898695639   -8.80663e-08   2.18000e-07 DIIS
   @DF-RHF iter  10:  -688.08045899939975   -1.24434e-08   1.04907e-07 DIIS
   @DF-RHF iter  11:  -688.08045900406944   -4.66969e-09   4.12232e-08 DIIS
   @DF-RHF iter  12:  -688.08045900481670   -7.47264e-10   1.48107e-08 DIIS
   @DF-RHF iter  13:  -688.08045900487082   -5.41149e-11   4.75774e-09 DIIS
  Energy and wave function converged.


  ==> Post-Iterations <==

    Orbital Energies [Eh]
    ---------------------

    Doubly Occupied:                                                      

       1A    -20.598093     2A    -20.598092     3A    -11.308524  
       4A    -11.308524     5A    -11.299541     6A    -11.298876  
       7A    -11.247271     8A    -11.247270     9A    -11.246074  
      10A    -11.246074    11A    -11.239146    12A    -11.239146  
      13A    -11.235112    14A    -11.235111    15A    -11.233652  
      16A    -11.233652    17A     -1.436672    18A     -1.427077  
      19A     -1.160204    20A     -1.156373    21A     -1.065739  
      22A     -1.027063    23A     -1.025344    24A     -1.016452  
      25A     -0.981282    26A     -0.893584    27A     -0.842762  
      28A     -0.834791    29A     -0.811649    30A     -0.809415  
      31A     -0.745446    32A     -0.719334    33A     -0.704689  
      34A     -0.677422    35A     -0.675183    36A     -0.659388  
      37A     -0.651185    38A     -0.639078    39A     -0.621664  
      40A     -0.615746    41A     -0.593065    42A     -0.591718  
      43A     -0.576813    44A     -0.549400    45A     -0.545623  
      46A     -0.520662    47A     -0.520603    48A     -0.510932  
      49A     -0.510473    50A     -0.488630    51A     -0.482553  
      52A     -0.474644    53A     -0.467833    54A     -0.344467  
      55A     -0.344104    56A     -0.318033    57A     -0.315292  

    Virtual:                                                              

      58A      0.058025    59A      0.063322    60A      0.064270  
      61A      0.069102    62A      0.074665    63A      0.083226  
      64A      0.085361    65A      0.089645    66A      0.096315  
      67A      0.104067    68A      0.106673    69A      0.107288  
      70A      0.109354    71A      0.110979    72A      0.114319  
      73A      0.120760    74A      0.121792    75A      0.125451  
      76A      0.131834    77A      0.135541    78A      0.136266  
      79A      0.136782    80A      0.145104    81A      0.158415  
      82A      0.159416    83A      0.160910    84A      0.163292  
      85A      0.165894    86A      0.174471    87A      0.178610  
      88A      0.191805    89A      0.191944    90A      0.198760  
      91A      0.199410    92A      0.202954    93A      0.205802  
      94A      0.210355    95A      0.213199    96A      0.227454  
      97A      0.230056    98A      0.234060    99A      0.242696  
     100A      0.245730   101A      0.256000   102A      0.259094  
     103A      0.259416   104A      0.267217   105A      0.269257  
     106A      0.280199   107A      0.282274   108A      0.287008  
     109A      0.290510   110A      0.290738   111A      0.292258  
     112A      0.294606   113A      0.304464   114A      0.310626  
     115A      0.319964   116A      0.322761   117A      0.328367  
     118A      0.335666   119A      0.342463   120A      0.346826  
     121A      0.353431   122A      0.360589   123A      0.365687  
     124A      0.366373   125A      0.378477   126A      0.380972  
     127A      0.383734   128A      0.384245   129A      0.388365  
     130A      0.391615   131A      0.397244   132A      0.400017  
     133A      0.412540   134A      0.419274   135A      0.420577  
     136A      0.432794   137A      0.436503   138A      0.446852  
     139A      0.448450   140A      0.467592   141A      0.472107  
     142A      0.486652   143A      0.496407   144A      0.512091  
     145A      0.514507   146A      0.529659   147A      0.546339  
     148A      0.549879   149A      0.571460   150A      0.578488  
     151A      0.584848   152A      0.591564   153A      0.595173  
     154A      0.621460   155A      0.707184   156A      0.743372  
     157A      0.746184   158A      0.750516   159A      0.773641  
     160A      0.785635   161A      0.814370   162A      0.814685  
     163A      0.819279   164A      0.823808   165A      0.830083  
     166A      0.832035   167A      0.841972   168A      0.852616  
     169A      0.860830   170A      0.872787   171A      0.872791  
     172A      0.886581   173A      0.893902   174A      0.903229  
     175A      0.905977   176A      0.914101   177A      0.919924  
     178A      0.926150   179A      0.928805   180A      0.939481  
     181A      0.949594   182A      0.954510   183A      0.955203  
     184A      0.959870   185A      0.963047   186A      0.970431  
     187A      0.970553   188A      0.972618   189A      0.981476  
     190A      0.983376   191A      0.985672   192A      0.986530  
     193A      0.987320   194A      0.994896   195A      1.015417  
     196A      1.031012   197A      1.044768   198A      1.055564  
     199A      1.086345   200A      1.086765   201A      1.093916  
     202A      1.095272   203A      1.138657   204A      1.143896  
     205A      1.150420   206A      1.155989   207A      1.159444  
     208A      1.179107   209A      1.198176   210A      1.206376  
     211A      1.210235   212A      1.236334   213A      1.238643  
     214A      1.243847   215A      1.245164   216A      1.251831  
     217A      1.259876   218A      1.259897   219A      1.267686  
     220A      1.268104   221A      1.271912   222A      1.283699  
     223A      1.311061   224A      1.316727   225A      1.318399  
     226A      1.331589   227A      1.343103   228A      1.358475  
     229A      1.364567   230A      1.369885   231A      1.377094  
     232A      1.378813   233A      1.412171   234A      1.430681  
     235A      1.461018   236A      1.474983   237A      1.506014  
     238A      1.507275   239A      1.515038   240A      1.527445  
     241A      1.574319   242A      1.587406   243A      1.624085  
     244A      1.646765   245A      1.676739   246A      1.682282  
     247A      1.743098   248A      1.744261   249A      1.765908  
     250A      1.766016   251A      1.769731   252A      1.769998  
     253A      1.787063   254A      1.794639   255A      1.800188  
     256A      1.802568   257A      1.833942   258A      1.843505  
     259A      1.870870   260A      1.871400   261A      1.915657  
     262A      1.916906   263A      1.917093   264A      1.920969  
     265A      1.932680   266A      1.946493   267A      1.948882  
     268A      1.953614   269A      1.953814   270A      1.954168  
     271A      1.957467   272A      1.964589   273A      1.965958  
     274A      1.981081   275A      1.981724   276A      2.001900  
     277A      2.002591   278A      2.021990   279A      2.032129  
     280A      2.056989   281A      2.070488   282A      2.070705  
     283A      2.072816   284A      2.082461   285A      2.097767  
     286A      2.099119   287A      2.105860   288A      2.109495  
     289A      2.132566   290A      2.133352   291A      2.166653  
     292A      2.177154   293A      2.179920   294A      2.180348  
     295A      2.182375   296A      2.186027   297A      2.186371  
     298A      2.191301   299A      2.232365   300A      2.236048  
     301A      2.269826   302A      2.270241   303A      2.271212  
     304A      2.276001   305A      2.340276   306A      2.344240  
     307A      2.371639   308A      2.377937   309A      2.396500  
     310A      2.408273   311A      2.416398   312A      2.465566  
     313A      2.493827   314A      2.498942   315A      2.502987  
     316A      2.509350   317A      2.516569   318A      2.517327  
     319A      2.598627   320A      2.605726   321A      2.639390  
     322A      2.659512   323A      2.764784   324A      2.776281  
     325A      2.777958   326A      2.805795   327A      2.809080  
     328A      2.811126   329A      2.819296   330A      2.840842  
     331A      2.854207   332A      2.862451   333A      2.877490  
     334A      2.889781   335A      2.914383   336A      2.946533  
     337A      3.015949   338A      3.032758   339A      3.043462  
     340A      3.057500   341A      3.097175   342A      3.100039  
     343A      3.187060   344A      3.194719   345A      3.235655  
     346A      3.286720   347A      3.290634   348A      3.324568  
     349A      3.378508   350A      3.487494   351A      3.554197  
     352A      3.576722   353A      3.755856   354A      3.771182  
     355A      3.877155   356A      3.909980   357A      4.126645  
     358A      4.139881  

    Final Occupation by Irrep:
              A 
    DOCC [    57 ]
    NA   [    57 ]
    NB   [    57 ]

  @DF-RHF Final Energy:  -688.08045900487082

   => Energetics <=

    Nuclear Repulsion Energy =            962.2192385718401511
    One-Electron Energy =               -2844.2663098633242953
    Two-Electron Energy =                1193.9666122866133264
    Total Energy =                       -688.0804590048708178

Computation Completed


Properties will be evaluated at   0.000000,   0.000000,   0.000000 [a0]

Properties computed using the SCF density matrix


 Multipole Moments:

 ------------------------------------------------------------------------------------
     Multipole            Electronic (a.u.)      Nuclear  (a.u.)        Total (a.u.)
 ------------------------------------------------------------------------------------

 L = 1.  Multiply by 2.5417464519 to convert [e a0] to [Debye]
 Dipole X            :         -0.0000000           -0.0000000           -0.0000000
 Dipole Y            :         -0.0000000            0.0000000           -0.0000000
 Dipole Z            :          0.0000000            0.0000000            0.0000000
 Magnitude           :                                                    0.0000000

 ------------------------------------------------------------------------------------

*** tstop() called on DESKTOP-D4OA462 at Thu Nov  9 14:25:18 2023
Module time:
	user time   =        nan seconds =        nan minutes
	system time =        nan seconds =        nan minutes
	total time  =         38 seconds =       0.63 minutes
Total time:
	user time   =        nan seconds =        nan minutes
	system time =        nan seconds =        nan minutes
	total time  =         38 seconds =       0.63 minutes
  Constructing Basis Sets for FISAPT...

   => Loading Basis Set <=

    Name: (JUN-CC-PVDZ AUX)
    Role: JKFIT
    Keyword: DF_BASIS_SCF
    atoms 1, 13                     entry O          line   258 file C:\Users\Ivan\.conda\envs\psi4\lib\share\psi4\basis\jun-cc-pvdz-jkfit.gbs 
    atoms 2-7, 14-19, 25, 28        entry C          line   146 file C:\Users\Ivan\.conda\envs\psi4\lib\share\psi4\basis\jun-cc-pvdz-jkfit.gbs 
    atoms 8-12, 20-24, 26-27, 29-30 entry H          line    70 file C:\Users\Ivan\.conda\envs\psi4\lib\share\psi4\basis\jun-cc-pvdz-jkfit.gbs 

   => Loading Basis Set <=

    Name: (JUN-CC-PVDZ AUX)
    Role: RIFIT
    Keyword: DF_BASIS_SAPT
    atoms 1, 13                     entry O          line   188 file C:\Users\Ivan\.conda\envs\psi4\lib\share\psi4\basis\jun-cc-pvdz-ri.gbs 
    atoms 2-7, 14-19, 25, 28        entry C          line   100 file C:\Users\Ivan\.conda\envs\psi4\lib\share\psi4\basis\jun-cc-pvdz-ri.gbs 
    atoms 8-12, 20-24, 26-27, 29-30 entry H          line    30 file C:\Users\Ivan\.conda\envs\psi4\lib\share\psi4\basis\jun-cc-pvdz-ri.gbs 

   => Loading Basis Set <=

    Name: CC-PVTZ-MINAO
    Role: ORBITAL
    Keyword: BASIS
    atoms 1, 13                     entry O          line   179 file C:\Users\Ivan\.conda\envs\psi4\lib\share\psi4\basis\cc-pvtz-minao.gbs 
    atoms 2-7, 14-19, 25, 28        entry C          line   119 file C:\Users\Ivan\.conda\envs\psi4\lib\share\psi4\basis\cc-pvtz-minao.gbs 
    atoms 8-12, 20-24, 26-27, 29-30 entry H          line    20 file C:\Users\Ivan\.conda\envs\psi4\lib\share\psi4\basis\cc-pvtz-minao.gbs 

	 --------------------------------------------
	                    FISAPT0                  
	                  Rob Parrish                
	 --------------------------------------------

    Do F-SAPT =         Yes
    Do Plot   =         Yes
    Memory    =      10.547 [GiB]

  ==> Localization (IBO) <==

  ==> IBO Localizer 2 <==

    MinAO Basis = CC-PVTZ-MINAO
    Use Ghosts  =       FALSE
    Use Stars   =       FALSE
    Condition   =   1.000E-07
    Power       =           4
    Convergence =   1.000E-12
    Maxiter     =         200

    @IBO Iter:                   Metric       Gradient
    @IBO    1:   1.1911474145843977E+00   1.717818E+00
    @IBO    2:   2.1418225790528655E+00   1.273359E+00
    @IBO    3:   2.1991155446175141E+00   8.715898E-01
    @IBO    4:   2.2077908969800668E+00   6.540742E-02
    @IBO    5:   2.2078667281839217E+00   1.809031E-03
    @IBO    6:   2.2078667551053668E+00   3.441494E-05
    @IBO    7:   2.2078667551180895E+00   1.807624E-06
    @IBO    8:   2.2078667551181548E+00   2.085274E-07
    @IBO    9:   2.2078667551181557E+00   3.744365E-08
    @IBO   10:   2.2078667551181557E+00   7.865717E-09
    @IBO   11:   2.2078667551181561E+00   1.692473E-09
    @IBO   12:   2.2078667551181561E+00   3.659585E-10
    @IBO   13:   2.2078667551181561E+00   7.927303E-11
    @IBO   14:   2.2078667551181557E+00   1.718894E-11
    @IBO   15:   2.2078667551181557E+00   3.729555E-12
    @IBO   16:   2.2078667551181561E+00   8.095939E-13

    IBO Localizer 2 converged.

  ==> Partitioning <==

   => Atomic Partitioning <= 

    Monomer A:  12 atoms
    Monomer B:  12 atoms
    Monomer C:   6 atoms

   => Link Bond Identification <=

    Link Bond Selection = AUTOMATIC

    Charge Completeness = 0.800

    Total Link Bonds = 2

    --------------------------
    N     Orb Type Aind1 Aind2
    --------------------------
    1      23   BC    13    28
    2      40   AC     1    25
    --------------------------

   => Link Bond Assignment <=

    Link Bond Assignment      = C

   => Partition Summary <=

    Monomer A:  0 charge,  48 protons,  48 electrons,  24 docc
    Monomer B:  0 charge,  48 protons,  48 electrons,  24 docc
    Monomer C:  0 charge,  18 protons,  18 electrons,   9 docc

  ==> Overlap Integrals <==

  ==> Kinetic Integrals <==

  ==> Nuclear Integrals <==

    Nuclear Repulsion Tot:   9.6221923857183958E+02 [Eh]

  ==> Coulomb Integrals <==

  DFHelper Memory: AOs need 1.237 GiB; user supplied 10.544 GiB. Using in-core AOs.

  ==> MemDFJK: Density-Fitted J/K Matrices <==

    J tasked:                   Yes
    K tasked:                   Yes
    wK tasked:                   No
    OpenMP threads:               1
    Memory [MiB]:             10800
    Algorithm:                 Core
    Schwarz Cutoff:           1E-12
    Mask sparsity (%):      20.9279
    Fitting Condition:        1E-10

   => Auxiliary Basis Set <=

  Basis Set: (JUN-CC-PVDZ AUX)
    Blend: JUN-CC-PVDZ-JKFIT
    Number of shells: 558
    Number of basis functions: 1586
    Number of Cartesian functions: 1806
    Spherical Harmonics?: true
    Max angular momentum: 3

  ==> Relaxed SCF Equations <==

  ==> SCF A: <==

    Maxiter =         100
    E Tol   =   1.000E-08
    D Tol   =   1.000E-08

    Max DIIS Vectors = 10

    Iter   N:                        E          dE         |D|
    Iter   1:  -2.9742699717462040E+02  -2.974E+02   3.652E-04 
    Iter   2:  -2.9742930992504142E+02  -2.313E-03   1.524E-05 DIIS
    Iter   3:  -2.9742933103160243E+02  -2.111E-05   4.411E-06 DIIS
    Iter   4:  -2.9742933290425060E+02  -1.873E-06   2.410E-06 DIIS
    Iter   5:  -2.9742933344441860E+02  -5.402E-07   5.966E-07 DIIS
    Iter   6:  -2.9742933352654126E+02  -8.212E-08   3.068E-07 DIIS
    Iter   7:  -2.9742933354669856E+02  -2.016E-08   1.400E-07 DIIS
    Iter   8:  -2.9742933355448253E+02  -7.784E-09   4.106E-08 DIIS
    Iter   9:  -2.9742933355504573E+02  -5.632E-10   1.479E-08 DIIS
    Iter  10:  -2.9742933355508922E+02  -4.349E-11   4.321E-09 DIIS

    FISAPTSCF Converged.

    Final SCF Energy:  -2.9742933355508922E+02 [Eh]

   => Occupied Orbital Energies <=

       1  -20.589667     2  -11.303712     3  -11.244422  
       4  -11.242824     5  -11.235574     6  -11.230937  
       7  -11.230326     8   -1.233354     9   -1.128568  
      10   -1.021659    11   -0.970629    12   -0.834212  
      13   -0.792148    14   -0.691588    15   -0.654045  
      16   -0.618439    17   -0.590518    18   -0.588827  
      19   -0.579794    20   -0.516461    21   -0.493871  
      22   -0.482355    23   -0.341434    24   -0.313285  

   => Virtual Orbital Energies <=

      25    0.029625    26    0.047043    27    0.061483  
      28    0.063920    29    0.070786    30    0.077612  
      31    0.080061    32    0.083615    33    0.094435  
      34    0.099366    35    0.100251    36    0.102307  
      37    0.109761    38    0.113572    39    0.119398  
      40    0.120648    41    0.121932    42    0.128774  
      43    0.129409    44    0.135252    45    0.140497  
      46    0.143936    47    0.149162    48    0.155353  
      49    0.158625    50    0.161382    51    0.164053  
      52    0.167385    53    0.171979    54    0.172571  
      55    0.179173    56    0.186102    57    0.189441  
      58    0.195425    59    0.198323    60    0.201901  
      61    0.205750    62    0.208042    63    0.210882  
      64    0.219733    65    0.224983    66    0.240274  
      67    0.240990    68    0.243373    69    0.248284  
      70    0.253476    71    0.264590    72    0.269388  
      73    0.275372    74    0.277394    75    0.282713  
      76    0.287643    77    0.288811    78    0.293349  
      79    0.299221    80    0.300070    81    0.308122  
      82    0.320186    83    0.323745    84    0.337531  
      85    0.344107    86    0.349644    87    0.365333  
      88    0.366647    89    0.375035    90    0.377385  
      91    0.388670    92    0.389211    93    0.399528  
      94    0.400181    95    0.410904    96    0.427707  
      97    0.428894    98    0.429328    99    0.431776  
     100    0.439996   101    0.451754   102    0.455164  
     103    0.458718   104    0.466244   105    0.468671  
     106    0.471475   107    0.478064   108    0.484566  
     109    0.493674   110    0.508783   111    0.518598  
     112    0.521297   113    0.525588   114    0.533395  
     115    0.549124   116    0.562424   117    0.574425  
     118    0.588312   119    0.600167   120    0.611247  
     121    0.614583   122    0.621422   123    0.652467  
     124    0.675475   125    0.678505   126    0.720845  
     127    0.734813   128    0.740207   129    0.749644  
     130    0.756654   131    0.774415   132    0.775307  
     133    0.792674   134    0.809397   135    0.821387  
     136    0.826021   137    0.843169   138    0.845192  
     139    0.867741   140    0.878040   141    0.885952  
     142    0.886381   143    0.899212   144    0.914919  
     145    0.918146   146    0.918769   147    0.938440  
     148    0.941237   149    0.960806   150    0.964262  
     151    0.978572   152    0.980038   153    0.982401  
     154    0.986723   155    0.989478   156    0.997687  
     157    1.002785   158    1.019164   159    1.025890  
     160    1.047478   161    1.055578   162    1.060898  
     163    1.101285   164    1.107926   165    1.131321  
     166    1.153172   167    1.164694   168    1.166735  
     169    1.192737   170    1.209137   171    1.229059  
     172    1.241231   173    1.247396   174    1.256563  
     175    1.265775   176    1.271697   177    1.285686  
     178    1.292629   179    1.322759   180    1.329916  
     181    1.365896   182    1.366069   183    1.371271  
     184    1.385115   185    1.409227   186    1.466791  
     187    1.502722   188    1.511069   189    1.534755  
     190    1.547989   191    1.589379   192    1.639937  
     193    1.653273   194    1.667249   195    1.708780  
     196    1.715831   197    1.747314   198    1.749130  
     199    1.756893   200    1.769096   201    1.773695  
     202    1.786577   203    1.792165   204    1.803120  
     205    1.803408   206    1.805913   207    1.808725  
     208    1.853383   209    1.861373   210    1.865083  
     211    1.881539   212    1.910442   213    1.917456  
     214    1.921858   215    1.924350   216    1.926874  
     217    1.929659   218    1.954554   219    1.958359  
     220    1.968823   221    1.969793   222    1.974651  
     223    1.983331   224    1.992584   225    1.998201  
     226    2.001754   227    2.016154   228    2.021839  
     229    2.032117   230    2.041028   231    2.045315  
     232    2.052714   233    2.074396   234    2.079320  
     235    2.088173   236    2.100801   237    2.115168  
     238    2.127682   239    2.139659   240    2.141964  
     241    2.158250   242    2.161270   243    2.174501  
     244    2.182173   245    2.182545   246    2.191298  
     247    2.197858   248    2.208275   249    2.209252  
     250    2.217155   251    2.220848   252    2.244395  
     253    2.268676   254    2.274262   255    2.279326  
     256    2.292294   257    2.306412   258    2.321135  
     259    2.337865   260    2.354593   261    2.391442  
     262    2.398560   263    2.406916   264    2.419437  
     265    2.430151   266    2.437653   267    2.465839  
     268    2.473647   269    2.497465   270    2.511734  
     271    2.513170   272    2.523314   273    2.524601  
     274    2.537704   275    2.551594   276    2.584687  
     277    2.612725   278    2.623812   279    2.641295  
     280    2.657662   281    2.699052   282    2.736843  
     283    2.768979   284    2.771562   285    2.786484  
     286    2.787950   287    2.813512   288    2.813645  
     289    2.839995   290    2.843277   291    2.858095  
     292    2.864492   293    2.909915   294    2.918507  
     295    2.936091   296    2.953235   297    2.973842  
     298    3.027152   299    3.049772   300    3.058294  
     301    3.101486   302    3.116494   303    3.120282  
     304    3.123098   305    3.129101   306    3.196935  
     307    3.223984   308    3.238224   309    3.255875  
     310    3.292698   311    3.298063   312    3.407087  
     313    3.447645   314    3.482897   315    3.544549  
     316    3.568961   317    3.617265   318    3.653123  
     319    3.709161   320    3.771707   321    3.867113  
     322    3.896935   323    4.134663   324    4.145332  
     325    4.282171   326    4.306501   327    4.342621  
     328    4.351747   329    4.454280   330    4.513989  
     331    4.606035   332    4.770176   333    4.934360  
     334    5.058797   335    5.061712   336    5.402500  
     337    5.410626   338    5.474052   339    5.494459  
     340    5.571503   341    5.699979   342    6.030592  
     343   17.979067   344   18.126930   345   18.140895  
     346   18.589193   347   18.619381   348   19.267699  
     349   26.469868  

  ==> SCF B: <==

    Maxiter =         100
    E Tol   =   1.000E-08
    D Tol   =   1.000E-08

    Max DIIS Vectors = 10

    Iter   N:                        E          dE         |D|
    Iter   1:  -2.9742699717521555E+02  -2.974E+02   3.652E-04 
    Iter   2:  -2.9742930992563549E+02  -2.313E-03   1.524E-05 DIIS
    Iter   3:  -2.9742933103219650E+02  -2.111E-05   4.411E-06 DIIS
    Iter   4:  -2.9742933290484507E+02  -1.873E-06   2.410E-06 DIIS
    Iter   5:  -2.9742933344501273E+02  -5.402E-07   5.966E-07 DIIS
    Iter   6:  -2.9742933352713584E+02  -8.212E-08   3.068E-07 DIIS
    Iter   7:  -2.9742933354729331E+02  -2.016E-08   1.400E-07 DIIS
    Iter   8:  -2.9742933355507711E+02  -7.784E-09   4.106E-08 DIIS
    Iter   9:  -2.9742933355564014E+02  -5.630E-10   1.479E-08 DIIS
    Iter  10:  -2.9742933355568346E+02  -4.331E-11   4.321E-09 DIIS

    FISAPTSCF Converged.

    Final SCF Energy:  -2.9742933355568346E+02 [Eh]

   => Occupied Orbital Energies <=

       1  -20.589667     2  -11.303712     3  -11.244422  
       4  -11.242824     5  -11.235574     6  -11.230937  
       7  -11.230326     8   -1.233354     9   -1.128568  
      10   -1.021659    11   -0.970629    12   -0.834212  
      13   -0.792148    14   -0.691588    15   -0.654045  
      16   -0.618439    17   -0.590518    18   -0.588827  
      19   -0.579794    20   -0.516461    21   -0.493871  
      22   -0.482355    23   -0.341434    24   -0.313285  

   => Virtual Orbital Energies <=

      25    0.029625    26    0.047043    27    0.061483  
      28    0.063920    29    0.070786    30    0.077612  
      31    0.080061    32    0.083615    33    0.094435  
      34    0.099366    35    0.100251    36    0.102307  
      37    0.109761    38    0.113572    39    0.119398  
      40    0.120648    41    0.121932    42    0.128774  
      43    0.129409    44    0.135252    45    0.140497  
      46    0.143936    47    0.149162    48    0.155353  
      49    0.158625    50    0.161382    51    0.164053  
      52    0.167385    53    0.171979    54    0.172571  
      55    0.179173    56    0.186102    57    0.189441  
      58    0.195425    59    0.198323    60    0.201901  
      61    0.205750    62    0.208042    63    0.210882  
      64    0.219733    65    0.224983    66    0.240274  
      67    0.240990    68    0.243373    69    0.248284  
      70    0.253476    71    0.264590    72    0.269388  
      73    0.275372    74    0.277394    75    0.282713  
      76    0.287643    77    0.288811    78    0.293349  
      79    0.299221    80    0.300070    81    0.308122  
      82    0.320186    83    0.323745    84    0.337531  
      85    0.344106    86    0.349644    87    0.365333  
      88    0.366647    89    0.375035    90    0.377385  
      91    0.388670    92    0.389211    93    0.399528  
      94    0.400181    95    0.410904    96    0.427707  
      97    0.428894    98    0.429328    99    0.431776  
     100    0.439996   101    0.451754   102    0.455164  
     103    0.458718   104    0.466244   105    0.468671  
     106    0.471475   107    0.478064   108    0.484566  
     109    0.493675   110    0.508783   111    0.518598  
     112    0.521297   113    0.525588   114    0.533395  
     115    0.549124   116    0.562424   117    0.574425  
     118    0.588312   119    0.600167   120    0.611247  
     121    0.614583   122    0.621422   123    0.652467  
     124    0.675475   125    0.678505   126    0.720845  
     127    0.734813   128    0.740207   129    0.749644  
     130    0.756654   131    0.774415   132    0.775307  
     133    0.792674   134    0.809397   135    0.821387  
     136    0.826021   137    0.843169   138    0.845192  
     139    0.867741   140    0.878040   141    0.885952  
     142    0.886381   143    0.899212   144    0.914919  
     145    0.918146   146    0.918769   147    0.938440  
     148    0.941237   149    0.960806   150    0.964262  
     151    0.978572   152    0.980038   153    0.982401  
     154    0.986723   155    0.989478   156    0.997687  
     157    1.002785   158    1.019164   159    1.025890  
     160    1.047478   161    1.055578   162    1.060898  
     163    1.101285   164    1.107926   165    1.131321  
     166    1.153172   167    1.164694   168    1.166735  
     169    1.192737   170    1.209137   171    1.229059  
     172    1.241231   173    1.247396   174    1.256563  
     175    1.265775   176    1.271697   177    1.285686  
     178    1.292629   179    1.322759   180    1.329916  
     181    1.365896   182    1.366069   183    1.371271  
     184    1.385115   185    1.409227   186    1.466791  
     187    1.502722   188    1.511069   189    1.534755  
     190    1.547989   191    1.589379   192    1.639937  
     193    1.653273   194    1.667249   195    1.708780  
     196    1.715831   197    1.747314   198    1.749130  
     199    1.756893   200    1.769096   201    1.773695  
     202    1.786577   203    1.792165   204    1.803120  
     205    1.803408   206    1.805913   207    1.808725  
     208    1.853383   209    1.861373   210    1.865083  
     211    1.881539   212    1.910442   213    1.917456  
     214    1.921858   215    1.924350   216    1.926874  
     217    1.929659   218    1.954554   219    1.958359  
     220    1.968823   221    1.969793   222    1.974651  
     223    1.983331   224    1.992584   225    1.998201  
     226    2.001754   227    2.016154   228    2.021839  
     229    2.032117   230    2.041028   231    2.045315  
     232    2.052714   233    2.074396   234    2.079320  
     235    2.088173   236    2.100801   237    2.115168  
     238    2.127682   239    2.139659   240    2.141964  
     241    2.158250   242    2.161270   243    2.174501  
     244    2.182173   245    2.182545   246    2.191298  
     247    2.197858   248    2.208275   249    2.209252  
     250    2.217155   251    2.220848   252    2.244395  
     253    2.268676   254    2.274262   255    2.279326  
     256    2.292294   257    2.306412   258    2.321135  
     259    2.337865   260    2.354593   261    2.391442  
     262    2.398560   263    2.406916   264    2.419437  
     265    2.430151   266    2.437653   267    2.465839  
     268    2.473647   269    2.497465   270    2.511734  
     271    2.513170   272    2.523314   273    2.524601  
     274    2.537704   275    2.551594   276    2.584687  
     277    2.612725   278    2.623812   279    2.641295  
     280    2.657662   281    2.699052   282    2.736843  
     283    2.768979   284    2.771562   285    2.786484  
     286    2.787950   287    2.813512   288    2.813645  
     289    2.839995   290    2.843277   291    2.858095  
     292    2.864492   293    2.909915   294    2.918507  
     295    2.936091   296    2.953235   297    2.973842  
     298    3.027152   299    3.049772   300    3.058294  
     301    3.101486   302    3.116494   303    3.120282  
     304    3.123098   305    3.129101   306    3.196935  
     307    3.223984   308    3.238224   309    3.255875  
     310    3.292698   311    3.298063   312    3.407087  
     313    3.447645   314    3.482897   315    3.544549  
     316    3.568961   317    3.617265   318    3.653123  
     319    3.709161   320    3.771707   321    3.867113  
     322    3.896935   323    4.134663   324    4.145332  
     325    4.282171   326    4.306501   327    4.342621  
     328    4.351747   329    4.454280   330    4.513989  
     331    4.606035   332    4.770176   333    4.934360  
     334    5.058797   335    5.061712   336    5.402500  
     337    5.410626   338    5.474052   339    5.494459  
     340    5.571503   341    5.699979   342    6.030592  
     343   17.979067   344   18.126930   345   18.140895  
     346   18.589193   347   18.619381   348   19.267699  
     349   26.469868  

  ==> Frozen Core <==


    ------------------
    Range      A     B
    ------------------
    nbf      358   358
    nmo      349   349
    nocc      24    24
    nvir     325   325
    nfocc      7     7
    naocc     17    17
    navir    325   325
    nfvir      0     0
    ------------------

  ==> Unification <==

  ==> dHF <==

    E ABC(HF) =  -6.8808045900487082E+02 [Eh]
    E AC(0)   =  -3.8090089145238733E+02 [Eh]
    E BC(0)   =  -3.8090089145316756E+02 [Eh]
    E A(0)    =  -2.8267708970021397E+02 [Eh]
    E B(0)    =  -2.8267708970089518E+02 [Eh]
    E AC(HF)  =  -3.8089855507191817E+02 [Eh]
    E BC(HF)  =  -3.8089855507270011E+02 [Eh]
    E AB(HF)  =  -5.6534428562229027E+02 [Eh]
    E A(HF)   =  -2.8267017301143426E+02 [Eh]
    E B(HF)   =  -2.8267017301212093E+02 [Eh]
    E C       =  -7.3720590738482585E+01 [Eh]
    E HF      =   7.3316220148456068E-04 [Eh]

  ==> Electrostatics <==

    Elst10,r            =     0.000462068820 [Eh]

  ==> Exchange <==

    Exch10(S^2)         =     0.001281090885 [Eh]
    Exch10              =     0.001281065186 [Eh]

  ==> Induction <==

    Ind20,u (A<-B)      =    -0.001120037525 [Eh]
    Ind20,u (B<-A)      =    -0.001120037525 [Eh]
    Ind20,u             =    -0.002240075051 [Eh]
    Exch-Ind20,u (A<-B) =     0.000762200175 [Eh]
    Exch-Ind20,u (B<-A) =     0.000762200176 [Eh]
    Exch-Ind20,u        =     0.001524400351 [Eh]

  ==> CPHF Iterations <==

    Maxiter     =         100
    Convergence =   1.000E-08

    -----------------------------------------
    Iter   Monomer A    Monomer B    Time [s]
    -----------------------------------------
    1      1.053E-01    1.053E-01           2
    2      2.733E-02    2.733E-02           4
    3      1.201E-02    1.201E-02           6
    4      3.349E-03    3.349E-03           7
    5      2.426E-03    2.426E-03           9
    6      5.759E-04    5.759E-04          11
    7      2.328E-04    2.328E-04          13
    8      5.623E-05    5.623E-05          15
    9      2.161E-05    2.161E-05          17
    10     5.375E-06    5.375E-06          18
    11     2.154E-06    2.154E-06          20
    12     8.376E-07    8.376E-07          22
    13     3.916E-07    3.916E-07          24
    14     8.713E-08    8.713E-08          26
    15     1.279E-08    1.279E-08          28
    16     3.587E-09*   3.587E-09*         29
    -----------------------------------------

    Ind20,r (A<-B)      =    -0.001261559940 [Eh]
    Ind20,r (B<-A)      =    -0.001261559940 [Eh]
    Ind20,r             =    -0.002523119880 [Eh]
    Exch-Ind20,r (A<-B) =     0.000842732778 [Eh]
    Exch-Ind20,r (B<-A) =     0.000842732778 [Eh]
    Exch-Ind20,r        =     0.001685465556 [Eh]

  ==> F-SAPT Localization (IBO) <==

  Local Orbitals for Monomer A:

  ==> IBO Localizer 2 <==

    MinAO Basis = CC-PVTZ-MINAO
    Use Ghosts  =       FALSE
    Use Stars   =       FALSE
    Condition   =   1.000E-07
    Power       =           4
    Convergence =   1.000E-12
    Maxiter     =        1000

    @IBO Iter:                   Metric       Gradient
    @IBO    1:   1.6262674428167800E+00   1.415450E+00
    @IBO    2:   1.7512892713567079E+00   6.821659E-01
    @IBO    3:   1.7905914054606933E+00   4.450704E-01
    @IBO    4:   1.7947123027291925E+00   1.009530E-02
    @IBO    5:   1.7947170341609400E+00   4.018717E-04
    @IBO    6:   1.7947170371869612E+00   9.364917E-06
    @IBO    7:   1.7947170371892593E+00   5.027081E-07
    @IBO    8:   1.7947170371892656E+00   3.147454E-08
    @IBO    9:   1.7947170371892656E+00   1.994196E-09
    @IBO   10:   1.7947170371892656E+00   1.267951E-10
    @IBO   11:   1.7947170371892658E+00   8.067331E-12
    @IBO   12:   1.7947170371892658E+00   5.133451E-13

    IBO Localizer 2 converged.

  Local Orbitals for Monomer B:

  ==> IBO Localizer 2 <==

    MinAO Basis = CC-PVTZ-MINAO
    Use Ghosts  =       FALSE
    Use Stars   =       FALSE
    Condition   =   1.000E-07
    Power       =           4
    Convergence =   1.000E-12
    Maxiter     =        1000

    @IBO Iter:                   Metric       Gradient
    @IBO    1:   1.6262674424408288E+00   1.415450E+00
    @IBO    2:   1.7512892713456358E+00   6.821659E-01
    @IBO    3:   1.7905914054582490E+00   4.450704E-01
    @IBO    4:   1.7947123027282825E+00   1.009530E-02
    @IBO    5:   1.7947170341600334E+00   4.018717E-04
    @IBO    6:   1.7947170371860546E+00   9.364917E-06
    @IBO    7:   1.7947170371883527E+00   5.027081E-07
    @IBO    8:   1.7947170371883590E+00   3.147454E-08
    @IBO    9:   1.7947170371883590E+00   1.994196E-09
    @IBO   10:   1.7947170371883592E+00   1.267950E-10
    @IBO   11:   1.7947170371883590E+00   8.067337E-12
    @IBO   12:   1.7947170371883590E+00   5.133621E-13

    IBO Localizer 2 converged.

  ==> F-SAPT Electrostatics <==

  DFHelper Memory: AOs need 1.554 GiB; user supplied 10.547 GiB. Using in-core AOs.

  ==> DFHelper <==
    NBF:                             358
    NAux:                           1586
    Schwarz Cutoff:                1E-12
    Mask sparsity (%):                21
    DFH Avail. Memory [GiB]:      10.547
    OpenMP threads:                    1
    Algorithm:                DIRECT_iaQ
    AO Core:                        True
    MO Core:                       False
    Hold Metric:                   False
    Metric Power:                 -0.500
    Fitting Condition:             1E-12
    Q Shell Max:                       7


    Elst10,r            =     0.000462068893 [Eh]

  ==> F-SAPT Exchange <==

    Exch10(S^2)         =     0.001281090885 [Eh]

    Scaling F-SAPT Exch10(S^2) by   1.000E+00 to match Exch10

  ==> F-SAPT Induction <==

    Ind20,u (A<-B)      =    -0.001120037525 [Eh]
    Ind20,u (B<-A)      =    -0.001120037525 [Eh]
    Ind20,u             =    -0.002240075051 [Eh]
    Exch-Ind20,u (A<-B) =     0.000762200175 [Eh]
    Exch-Ind20,u (B<-A) =     0.000762200176 [Eh]
    Exch-Ind20,u        =     0.001524400351 [Eh]

    Scaling for delta HF        =   1.206E+00
    Scaling for response (A<-B) =   1.170E+00
    Scaling for response (B<-A) =   1.170E+00
    Scaling for total (A<-B)    =   1.411E+00
    Scaling for total (B<-A)    =   1.411E+00

  ==> F-SAPT Dispersion <==

  DFHelper Memory: AOs need 1.213 GiB; user supplied 10.541 GiB. Using in-core AOs.

  ==> DFHelper <==
    NBF:                             358
    NAux:                           1236
    Schwarz Cutoff:                1E-12
    Mask sparsity (%):                21
    DFH Avail. Memory [GiB]:      10.541
    OpenMP threads:                    1
    Algorithm:                DIRECT_iaQ
    AO Core:                        True
    MO Core:                       False
    Hold Metric:                   False
    Metric Power:                 -0.500
    Fitting Condition:             1E-12
    Q Shell Max:                       7


    1415577600 doubles - 1587685 overhead leaves 1413989915 for dispersion
    Processing a single (r,s) pair requires 168096 doubles
    325 values of r processed in 1 blocks of 325
    325 values of s processed in 1 blocks of 325

    Disp20              =    -0.000812666696 [Eh]
    Exch-Disp20         =     0.000061472372 [Eh]

  ==> F-SAPT Output <==

    F-SAPT Data Filepath = fsapt/

  ==> Scalar Field Plots <==

    F-SAPT Plot Filepath = plot/

  ==> CubicScalarGrid <==

    Filepath     = plot/
    Total Points =           901784
    XYZ Blocking =               10
    X Points     =              169
    Y Points     =               92
    Z Points     =               58
    X Spacing    =        2.000E-01
    Y Spacing    =        2.000E-01
    Z Spacing    =        2.000E-01
    X Minimum    =       -1.680E+01
    Y Minimum    =       -9.100E+00
    Z Minimum    =       -5.700E+00
    X Maximum    =        1.680E+01
    Y Maximum    =        9.100E+00
    Z Maximum    =        5.700E+00

  Basis Set: JUN-CC-PVDZ
    Blend: JUN-CC-PVDZ
    Number of shells: 170
    Number of basis functions: 358
    Number of Cartesian functions: 374
    Spherical Harmonics?: true
    Max angular momentum: 2

*********************************************************************************************************************
When computing potential integrals with different bra and ket basis, the atom definition is taken from the bra basis.
*********************************************************************************************************************
*********************************************************************************************************************
When computing potential integrals with different bra and ket basis, the atom definition is taken from the bra basis.
*********************************************************************************************************************
*********************************************************************************************************************
When computing potential integrals with different bra and ket basis, the atom definition is taken from the bra basis.
*********************************************************************************************************************
  ==> Results <==


    SAPT Results  
  --------------------------------------------------------------------------------------------------------
    Electrostatics                  0.46206882 [mEh]       0.28995256 [kcal/mol]       1.21316152 [kJ/mol]
      Elst10,r                      0.46206882 [mEh]       0.28995256 [kcal/mol]       1.21316152 [kJ/mol]

    Exchange                        1.28106519 [mEh]       0.80388054 [kcal/mol]       3.36343618 [kJ/mol]
      Exch10                        1.28106519 [mEh]       0.80388054 [kcal/mol]       3.36343618 [kJ/mol]
      Exch10(S^2)                   1.28109088 [mEh]       0.80389667 [kcal/mol]       3.36350365 [kJ/mol]

    Induction                      -1.00997181 [mEh]      -0.63376688 [kcal/mol]      -2.65168061 [kJ/mol]
      Ind20,r                      -2.52311988 [mEh]      -1.58328163 [kcal/mol]      -6.62445033 [kJ/mol]
      Exch-Ind20,r                  1.68546556 [mEh]       1.05764560 [kcal/mol]       4.42518921 [kJ/mol]
      delta HF,r (2)               -0.17231748 [mEh]      -0.10813085 [kcal/mol]      -0.45241948 [kJ/mol]
      Induction (A<-B)             -0.50498590 [mEh]      -0.31688344 [kcal/mol]      -1.32584031 [kJ/mol]
      Induction (B<-A)             -0.50498590 [mEh]      -0.31688344 [kcal/mol]      -1.32584030 [kJ/mol]

    Dispersion                     -0.75119432 [mEh]      -0.47138156 [kcal/mol]      -1.97226043 [kJ/mol]
      Disp20                       -0.81266670 [mEh]      -0.50995605 [kcal/mol]      -2.13365612 [kJ/mol]
      Exch-Disp20                   0.06147237 [mEh]       0.03857450 [kcal/mol]       0.16139569 [kJ/mol]

  Total HF                          0.73316220 [mEh]       0.46006623 [kcal/mol]       1.92491709 [kJ/mol]
  Total SAPT0                      -0.01803212 [mEh]      -0.01131533 [kcal/mol]      -0.04734333 [kJ/mol]

  --------------------------------------------------------------------------------------------------------
    Han Solo: This is *not* gonna work.
    Luke Skywalker: Why didn't you say so before?
    Han Solo: I *did* say so before.

    Psi4 stopped on: Thursday, 09 November 2023 02:36PM
    Psi4 wall time for execution: 0:11:33.32

*** Psi4 exiting successfully. Buy a developer a beer!
