
    -----------------------------------------------------------------------
          Psi4: An Open-Source Ab Initio Electronic Structure Package
                               Psi4 1.7 release

                         Git: Rev {HEAD} 6ce35a5 


    D. G. A. Smith, L. A. Burns, A. C. Simmonett, R. M. Parrish,
    M. C. Schieber, R. Galvelis, P. Kraus, H. Kruse, R. Di Remigio,
    A. Alenaizan, A. M. James, S. Lehtola, J. P. Misiewicz, M. Scheurer,
    R. A. Shaw, J. B. Schriber, Y. Xie, Z. L. Glick, D. A. Sirianni,
    J. S. O'Brien, J. M. Waldrop, A. Kumar, E. G. Hohenstein,
    B. P. Pritchard, B. R. Brooks, H. F. Schaefer III, A. Yu. Sokolov,
    K. Patkowski, A. E. DePrince III, U. Bozkaya, R. A. King,
    F. A. Evangelista, J. M. Turney, T. D. Crawford, C. D. Sherrill,
    J. Chem. Phys. 152(18) 184108 (2020). https://doi.org/10.1063/5.0006002

                            Additional Code Authors
    E. T. Seidl, C. L. Janssen, E. F. Valeev, M. L. Leininger,
    J. F. Gonthier, R. M. Richard, H. R. McAlexander, M. Saitow, X. Wang,
    P. Verma, M. H. Lechner, A. Jiang, S. Behnle, A. G. Heide,
    M. F. Herbst, and D. L. Poole

             Previous Authors, Complete List of Code Contributors,
                       and Citations for Specific Modules
    https://github.com/psi4/psi4/blob/master/codemeta.json
    https://github.com/psi4/psi4/graphs/contributors
    http://psicode.org/psi4manual/master/introduction.html#citing-psifour

    -----------------------------------------------------------------------


    Psi4 started on: Thursday, 09 November 2023 02:36PM

    Process ID: 13880
    Host:       DESKTOP-D4OA462
    PSIDATADIR: C:\Users\Ivan\.conda\envs\psi4\lib\share\psi4
    Memory:     500.0 MiB
    Threads:    1
    
  ==> Input File <==

--------------------------------------------------------------------------
memory 12000 MiB
mol = psi4.core.Molecule.from_arrays(
    elez=[8,6,6,6,6,6,6,1,1,1,1,1,8,6,6,6,6,6,6,1,1,1,1,1,6,1,1,6,1,1],
    fragment_separators=[12, 24],
    fix_com=True,
    fix_orientation=True,
    fix_symmetry='c1',
    fragment_multiplicities=[2, 2, 1],
    molecular_charge=0,
    molecular_multiplicity=1,
    geom= [
       -1.660986040,      1.727705153,     -0.676968730,
       -2.578764571,      0.729280299,     -0.737360409,
       -3.524156464,      0.846210886,     -1.753815284,
       -2.631600132,     -0.355436296,      0.131575305,
       -4.511734697,     -0.109348201,     -1.895545150,
       -3.632446631,     -1.307259941,     -0.023118056,
       -4.574657693,     -1.195011745,     -1.029967967,
       -3.464724603,      1.699356386,     -2.417845879,
       -1.907375366,     -0.477348079,      0.925095860,
       -5.241532694,     -0.004945973,     -2.689766785,
       -3.664535572,     -2.149004616,      0.658662950,
       -5.348772006,     -1.943437273,     -1.142800483,
                                                        
        1.407122883,      0.796024640,      0.954331943,
        2.538366728,      0.060181508,      0.827280231,
        2.838703742,     -0.722883529,     -0.281333644,
        3.427554055,      0.119734636,      1.898114858,
        4.028501151,     -1.441357855,     -0.306581877,
        4.605690543,     -0.600035090,      1.857031585,
        4.915835663,     -1.387058721,      0.753410739,
        2.162528673,     -0.782200568,     -1.123072251,
        3.172090065,      0.736706666,      2.750293922,
        4.255943779,     -2.049489771,     -1.174018074,
        5.290389315,     -0.546209760,      2.695217486,
        5.840231889,     -1.949388968,      0.723542545,
                                                        
       -0.660788857,      1.682983413,      0.312243558,
       -0.295356946,      2.704577995,      0.416784566,
       -1.063324795,      1.372658323,      1.280332297,
        0.479879669,      0.777291116,     -0.103150025,
        0.120065135,     -0.240469631,     -0.288983282,
        0.930360369,      1.153923388,     -1.027996133])
activate(mol)       
                    
set {               
basis jun-cc-pvdz   
scf_type df
guess sad
freeze_core true
fisapt_do_plot true
}
energy('fisapt0')
--------------------------------------------------------------------------

  Memory set to  11.719 GiB by Python driver.

Scratch directory: C:\Users\Ivan\AppData\Local\Temp/

*** tstart() called on DESKTOP-D4OA462
*** at Thu Nov  9 14:36:15 2023

   => Loading Basis Set <=

    Name: JUN-CC-PVDZ
    Role: ORBITAL
    Keyword: BASIS
    atoms 1, 13                     entry O          line   232 file C:\Users\Ivan\.conda\envs\psi4\lib\share\psi4\basis\jun-cc-pvdz.gbs 
    atoms 2-7, 14-19, 25, 28        entry C          line   164 file C:\Users\Ivan\.conda\envs\psi4\lib\share\psi4\basis\jun-cc-pvdz.gbs 
    atoms 8-12, 20-24, 26-27, 29-30 entry H          line    36 file C:\Users\Ivan\.conda\envs\psi4\lib\share\psi4\basis\jun-cc-pvdz.gbs 


         ---------------------------------------------------------
                                   SCF
               by Justin Turney, Rob Parrish, Andy Simmonett
                          and Daniel G. A. Smith
                              RHF Reference
                        1 Threads,   -288 MiB Core
         ---------------------------------------------------------

  ==> Geometry <==

    Molecular point group: c1
    Full point group: C1

    Geometry (in Angstrom), charge = 0, multiplicity = 1:

       Center              X                  Y                   Z               Mass       
    ------------   -----------------  -----------------  -----------------  -----------------
         O           -1.660986040000     1.727705153000    -0.676968730000    15.994914619570
         C           -2.578764571000     0.729280299000    -0.737360409000    12.000000000000
         C           -3.524156464000     0.846210886000    -1.753815284000    12.000000000000
         C           -2.631600132000    -0.355436296000     0.131575305000    12.000000000000
         C           -4.511734697000    -0.109348201000    -1.895545150000    12.000000000000
         C           -3.632446631000    -1.307259941000    -0.023118056000    12.000000000000
         C           -4.574657693000    -1.195011745000    -1.029967967000    12.000000000000
         H           -3.464724603000     1.699356386000    -2.417845879000     1.007825032230
         H           -1.907375366000    -0.477348079000     0.925095860000     1.007825032230
         H           -5.241532694000    -0.004945973000    -2.689766785000     1.007825032230
         H           -3.664535572000    -2.149004616000     0.658662950000     1.007825032230
         H           -5.348772006000    -1.943437273000    -1.142800483000     1.007825032230
         O            1.407122883000     0.796024640000     0.954331943000    15.994914619570
         C            2.538366728000     0.060181508000     0.827280231000    12.000000000000
         C            2.838703742000    -0.722883529000    -0.281333644000    12.000000000000
         C            3.427554055000     0.119734636000     1.898114858000    12.000000000000
         C            4.028501151000    -1.441357855000    -0.306581877000    12.000000000000
         C            4.605690543000    -0.600035090000     1.857031585000    12.000000000000
         C            4.915835663000    -1.387058721000     0.753410739000    12.000000000000
         H            2.162528673000    -0.782200568000    -1.123072251000     1.007825032230
         H            3.172090065000     0.736706666000     2.750293922000     1.007825032230
         H            4.255943779000    -2.049489771000    -1.174018074000     1.007825032230
         H            5.290389315000    -0.546209760000     2.695217486000     1.007825032230
         H            5.840231889000    -1.949388968000     0.723542545000     1.007825032230
         C           -0.660788857000     1.682983413000     0.312243558000    12.000000000000
         H           -0.295356946000     2.704577995000     0.416784566000     1.007825032230
         H           -1.063324795000     1.372658323000     1.280332297000     1.007825032230
         C            0.479879669000     0.777291116000    -0.103150025000    12.000000000000
         H            0.120065135000    -0.240469631000    -0.288983282000     1.007825032230
         H            0.930360369000     1.153923388000    -1.027996133000     1.007825032230

  Running in c1 symmetry.

  Rotational constants: A =      0.04828  B =      0.00659  C =      0.00629 [cm^-1]
  Rotational constants: A =   1447.34186  B =    197.54634  C =    188.71682 [MHz]
  Nuclear repulsion =  984.704696259746015

  Charge       = 0
  Multiplicity = 1
  Electrons    = 114
  Nalpha       = 57
  Nbeta        = 57

  ==> Algorithm <==

  SCF Algorithm Type is DF.
  DIIS enabled.
  MOM disabled.
  Fractional occupation disabled.
  Guess Type is SAD.
  Energy threshold   = 1.00e-08
  Density threshold  = 1.00e-08
  Integral threshold = 1.00e-12

  ==> Primary Basis <==

  Basis Set: JUN-CC-PVDZ
    Blend: JUN-CC-PVDZ
    Number of shells: 170
    Number of basis functions: 358
    Number of Cartesian functions: 374
    Spherical Harmonics?: true
    Max angular momentum: 2

   => Loading Basis Set <=

    Name: (JUN-CC-PVDZ AUX)
    Role: JKFIT
    Keyword: DF_BASIS_SCF
    atoms 1, 13                     entry O          line   258 file C:\Users\Ivan\.conda\envs\psi4\lib\share\psi4\basis\jun-cc-pvdz-jkfit.gbs 
    atoms 2-7, 14-19, 25, 28        entry C          line   146 file C:\Users\Ivan\.conda\envs\psi4\lib\share\psi4\basis\jun-cc-pvdz-jkfit.gbs 
    atoms 8-12, 20-24, 26-27, 29-30 entry H          line    70 file C:\Users\Ivan\.conda\envs\psi4\lib\share\psi4\basis\jun-cc-pvdz-jkfit.gbs 

  ==> Integral Setup <==

  DFHelper Memory: AOs need 1.296 GiB; user supplied 8.789 GiB. Using in-core AOs.

  ==> MemDFJK: Density-Fitted J/K Matrices <==

    J tasked:                   Yes
    K tasked:                   Yes
    wK tasked:                   No
    OpenMP threads:               1
    Memory [MiB]:              9000
    Algorithm:                 Core
    Schwarz Cutoff:           1E-12
    Mask sparsity (%):      17.0251
    Fitting Condition:        1E-10

   => Auxiliary Basis Set <=

  Basis Set: (JUN-CC-PVDZ AUX)
    Blend: JUN-CC-PVDZ-JKFIT
    Number of shells: 558
    Number of basis functions: 1586
    Number of Cartesian functions: 1806
    Spherical Harmonics?: true
    Max angular momentum: 3

  Minimum eigenvalue in the overlap matrix is 7.0787211745E-06.
  Reciprocal condition number of the overlap matrix is 5.3880604029E-07.
    Using symmetric orthogonalization.

  ==> Pre-Iterations <==

  SCF Guess: Superposition of Atomic Densities via on-the-fly atomic UHF (no occupation information).

   -------------------------
    Irrep   Nso     Nmo    
   -------------------------
     A        358     358 
   -------------------------
    Total     358     358
   -------------------------

  ==> Iterations <==

                           Total Energy        Delta E     RMS |[F,P]|

   @DF-RHF iter SAD:  -687.62066792485393   -6.87621e+02   0.00000e+00 
   @DF-RHF iter   1:  -687.67629916904752   -5.56312e-02   2.19257e-03 ADIIS/DIIS
   @DF-RHF iter   2:  -688.01041799112954   -3.34119e-01   9.64812e-04 ADIIS/DIIS
   @DF-RHF iter   3:  -688.07243149508759   -6.20135e-02   1.97325e-04 ADIIS/DIIS
   @DF-RHF iter   4:  -688.07640201523293   -3.97052e-03   7.05637e-05 DIIS
   @DF-RHF iter   5:  -688.07676284724528   -3.60832e-04   1.45068e-05 DIIS
   @DF-RHF iter   6:  -688.07678899310224   -2.61459e-05   5.18477e-06 DIIS
   @DF-RHF iter   7:  -688.07679240533253   -3.41223e-06   1.74330e-06 DIIS
   @DF-RHF iter   8:  -688.07679297688401   -5.71551e-07   5.73148e-07 DIIS
   @DF-RHF iter   9:  -688.07679307178353   -9.48995e-08   2.26473e-07 DIIS
   @DF-RHF iter  10:  -688.07679308548950   -1.37060e-08   1.09407e-07 DIIS
   @DF-RHF iter  11:  -688.07679309059904   -5.10954e-09   4.19784e-08 DIIS
   @DF-RHF iter  12:  -688.07679309137961   -7.80574e-10   1.46794e-08 DIIS
   @DF-RHF iter  13:  -688.07679309143350   -5.38876e-11   4.70379e-09 DIIS
  Energy and wave function converged.


  ==> Post-Iterations <==

    Orbital Energies [Eh]
    ---------------------

    Doubly Occupied:                                                      

       1A    -20.599238     2A    -20.597026     3A    -11.309635  
       4A    -11.309365     5A    -11.299174     6A    -11.298187  
       7A    -11.248260     8A    -11.247930     9A    -11.246753  
      10A    -11.246633    11A    -11.240305    12A    -11.239966  
      13A    -11.235827    14A    -11.235060    15A    -11.234377  
      16A    -11.234138    17A     -1.435959    18A     -1.425981  
      19A     -1.160387    20A     -1.157410    21A     -1.063386  
      22A     -1.027562    23A     -1.025835    24A     -1.018904  
      25A     -0.983897    26A     -0.895623    27A     -0.842641  
      28A     -0.838259    29A     -0.816340    30A     -0.806190  
      31A     -0.743362    32A     -0.726595    33A     -0.691027  
      34A     -0.680428    35A     -0.674517    36A     -0.662075  
      37A     -0.657511    38A     -0.631912    39A     -0.620979  
      40A     -0.613418    41A     -0.594027    42A     -0.591850  
      43A     -0.582691    44A     -0.556253    45A     -0.542928  
      46A     -0.525026    47A     -0.519346    48A     -0.516413  
      49A     -0.507386    50A     -0.488759    51A     -0.483914  
      52A     -0.471784    53A     -0.468538    54A     -0.345361  
      55A     -0.344814    56A     -0.318357    57A     -0.315712  

    Virtual:                                                              

      58A      0.058035    59A      0.060456    60A      0.063802  
      61A      0.068177    62A      0.072476    63A      0.079605  
      64A      0.084485    65A      0.086376    66A      0.095273  
      67A      0.099737    68A      0.104824    69A      0.105134  
      70A      0.107999    71A      0.110430    72A      0.114331  
      73A      0.121726    74A      0.124613    75A      0.127125  
      76A      0.128439    77A      0.131704    78A      0.138938  
      79A      0.144278    80A      0.152238    81A      0.155638  
      82A      0.161776    83A      0.163080    84A      0.167652  
      85A      0.172689    86A      0.175422    87A      0.182548  
      88A      0.186727    89A      0.193169    90A      0.197411  
      91A      0.202438    92A      0.206471    93A      0.208598  
      94A      0.212321    95A      0.218361    96A      0.220326  
      97A      0.227689    98A      0.231575    99A      0.234045  
     100A      0.248970   101A      0.251537   102A      0.260357  
     103A      0.263765   104A      0.265483   105A      0.268834  
     106A      0.274910   107A      0.278662   108A      0.281793  
     109A      0.289498   110A      0.290502   111A      0.290949  
     112A      0.296309   113A      0.299725   114A      0.305402  
     115A      0.317356   116A      0.321620   117A      0.324056  
     118A      0.335157   119A      0.343896   120A      0.349717  
     121A      0.354694   122A      0.362372   123A      0.365844  
     124A      0.368736   125A      0.374433   126A      0.381712  
     127A      0.384184   128A      0.388745   129A      0.390463  
     130A      0.391508   131A      0.392476   132A      0.402630  
     133A      0.410631   134A      0.413764   135A      0.427891  
     136A      0.435410   137A      0.437805   138A      0.448736  
     139A      0.458726   140A      0.462914   141A      0.473569  
     142A      0.483357   143A      0.489147   144A      0.491405  
     145A      0.503329   146A      0.514194   147A      0.544730  
     148A      0.546693   149A      0.561814   150A      0.575631  
     151A      0.584359   152A      0.586499   153A      0.597201  
     154A      0.612823   155A      0.695592   156A      0.723029  
     157A      0.750519   158A      0.758977   159A      0.783323  
     160A      0.790747   161A      0.800821   162A      0.815604  
     163A      0.820966   164A      0.822371   165A      0.826438  
     166A      0.839319   167A      0.845030   168A      0.855284  
     169A      0.868940   170A      0.874091   171A      0.879576  
     172A      0.883785   173A      0.897640   174A      0.901041  
     175A      0.907798   176A      0.915573   177A      0.920978  
     178A      0.926066   179A      0.931995   180A      0.936748  
     181A      0.944922   182A      0.955099   183A      0.958272  
     184A      0.959200   185A      0.961411   186A      0.965415  
     187A      0.971949   188A      0.977920   189A      0.983493  
     190A      0.985508   191A      0.992124   192A      0.994283  
     193A      1.004725   194A      1.014999   195A      1.028960  
     196A      1.030537   197A      1.038457   198A      1.060876  
     199A      1.063420   200A      1.082116   201A      1.097121  
     202A      1.105384   203A      1.124806   204A      1.135759  
     205A      1.147045   206A      1.164292   207A      1.167682  
     208A      1.173504   209A      1.176536   210A      1.198299  
     211A      1.213598   212A      1.224350   213A      1.236338  
     214A      1.240259   215A      1.245144   216A      1.249631  
     217A      1.254567   218A      1.260595   219A      1.267824  
     220A      1.268954   221A      1.272384   222A      1.277094  
     223A      1.297687   224A      1.315777   225A      1.317727  
     226A      1.326589   227A      1.338948   228A      1.342293  
     229A      1.360662   230A      1.362969   231A      1.368004  
     232A      1.374660   233A      1.378407   234A      1.411975  
     235A      1.467506   236A      1.489719   237A      1.506166  
     238A      1.508169   239A      1.513616   240A      1.520497  
     241A      1.560712   242A      1.604985   243A      1.615655  
     244A      1.660377   245A      1.696334   246A      1.710899  
     247A      1.726896   248A      1.743593   249A      1.752485  
     250A      1.764801   251A      1.765782   252A      1.769135  
     253A      1.786618   254A      1.794005   255A      1.802393  
     256A      1.807567   257A      1.831228   258A      1.839531  
     259A      1.873013   260A      1.888105   261A      1.913969  
     262A      1.919499   263A      1.920812   264A      1.925108  
     265A      1.931689   266A      1.940840   267A      1.951085  
     268A      1.955749   269A      1.956594   270A      1.961681  
     271A      1.969705   272A      1.971453   273A      1.979406  
     274A      1.980484   275A      1.991333   276A      1.995730  
     277A      2.012093   278A      2.018642   279A      2.037978  
     280A      2.054950   281A      2.068633   282A      2.069522  
     283A      2.070338   284A      2.082940   285A      2.096376  
     286A      2.098024   287A      2.111239   288A      2.127723  
     289A      2.131514   290A      2.147778   291A      2.171881  
     292A      2.175448   293A      2.177177   294A      2.181867  
     295A      2.184303   296A      2.188470   297A      2.190005  
     298A      2.202466   299A      2.217326   300A      2.236867  
     301A      2.267230   302A      2.272526   303A      2.275158  
     304A      2.287058   305A      2.311026   306A      2.345175  
     307A      2.352845   308A      2.380019   309A      2.398865  
     310A      2.416759   311A      2.418371   312A      2.446656  
     313A      2.477011   314A      2.498215   315A      2.501831  
     316A      2.514075   317A      2.517056   318A      2.543657  
     319A      2.557659   320A      2.614281   321A      2.636951  
     322A      2.653317   323A      2.736836   324A      2.763366  
     325A      2.772463   326A      2.786236   327A      2.806721  
     328A      2.809425   329A      2.835333   330A      2.840853  
     331A      2.845708   332A      2.855986   333A      2.866662  
     334A      2.876683   335A      2.936949   336A      2.962138  
     337A      3.011598   338A      3.018052   339A      3.043880  
     340A      3.048593   341A      3.096980   342A      3.099959  
     343A      3.183730   344A      3.188291   345A      3.241321  
     346A      3.285988   347A      3.288513   348A      3.311092  
     349A      3.396234   350A      3.441613   351A      3.554988  
     352A      3.600556   353A      3.743605   354A      3.763638  
     355A      3.853967   356A      3.933113   357A      4.118314  
     358A      4.131274  

    Final Occupation by Irrep:
              A 
    DOCC [    57 ]
    NA   [    57 ]
    NB   [    57 ]

  @DF-RHF Final Energy:  -688.07679309143350

   => Energetics <=

    Nuclear Repulsion Energy =            984.7046962597460151
    One-Electron Energy =               -2889.1725085806219795
    Two-Electron Energy =                1216.3910192294424633
    Total Energy =                       -688.0767930914335011

Computation Completed


Properties will be evaluated at   0.000000,   0.000000,   0.000000 [a0]

Properties computed using the SCF density matrix


 Multipole Moments:

 ------------------------------------------------------------------------------------
     Multipole            Electronic (a.u.)      Nuclear  (a.u.)        Total (a.u.)
 ------------------------------------------------------------------------------------

 L = 1.  Multiply by 2.5417464519 to convert [e a0] to [Debye]
 Dipole X            :         -5.7262621            5.8153998            0.0891377
 Dipole Y            :         -0.9252407            0.5637230           -0.3615177
 Dipole Z            :          0.5178912           -0.5724819           -0.0545907
 Magnitude           :                                                    0.3763253

 ------------------------------------------------------------------------------------

*** tstop() called on DESKTOP-D4OA462 at Thu Nov  9 14:36:54 2023
Module time:
	user time   =        nan seconds =        nan minutes
	system time =        nan seconds =        nan minutes
	total time  =         39 seconds =       0.65 minutes
Total time:
	user time   =        nan seconds =        nan minutes
	system time =        nan seconds =        nan minutes
	total time  =         39 seconds =       0.65 minutes
  Constructing Basis Sets for FISAPT...

   => Loading Basis Set <=

    Name: (JUN-CC-PVDZ AUX)
    Role: JKFIT
    Keyword: DF_BASIS_SCF
    atoms 1, 13                     entry O          line   258 file C:\Users\Ivan\.conda\envs\psi4\lib\share\psi4\basis\jun-cc-pvdz-jkfit.gbs 
    atoms 2-7, 14-19, 25, 28        entry C          line   146 file C:\Users\Ivan\.conda\envs\psi4\lib\share\psi4\basis\jun-cc-pvdz-jkfit.gbs 
    atoms 8-12, 20-24, 26-27, 29-30 entry H          line    70 file C:\Users\Ivan\.conda\envs\psi4\lib\share\psi4\basis\jun-cc-pvdz-jkfit.gbs 

   => Loading Basis Set <=

    Name: (JUN-CC-PVDZ AUX)
    Role: RIFIT
    Keyword: DF_BASIS_SAPT
    atoms 1, 13                     entry O          line   188 file C:\Users\Ivan\.conda\envs\psi4\lib\share\psi4\basis\jun-cc-pvdz-ri.gbs 
    atoms 2-7, 14-19, 25, 28        entry C          line   100 file C:\Users\Ivan\.conda\envs\psi4\lib\share\psi4\basis\jun-cc-pvdz-ri.gbs 
    atoms 8-12, 20-24, 26-27, 29-30 entry H          line    30 file C:\Users\Ivan\.conda\envs\psi4\lib\share\psi4\basis\jun-cc-pvdz-ri.gbs 

   => Loading Basis Set <=

    Name: CC-PVTZ-MINAO
    Role: ORBITAL
    Keyword: BASIS
    atoms 1, 13                     entry O          line   179 file C:\Users\Ivan\.conda\envs\psi4\lib\share\psi4\basis\cc-pvtz-minao.gbs 
    atoms 2-7, 14-19, 25, 28        entry C          line   119 file C:\Users\Ivan\.conda\envs\psi4\lib\share\psi4\basis\cc-pvtz-minao.gbs 
    atoms 8-12, 20-24, 26-27, 29-30 entry H          line    20 file C:\Users\Ivan\.conda\envs\psi4\lib\share\psi4\basis\cc-pvtz-minao.gbs 

	 --------------------------------------------
	                    FISAPT0                  
	                  Rob Parrish                
	 --------------------------------------------

    Do F-SAPT =         Yes
    Do Plot   =         Yes
    Memory    =      10.547 [GiB]

  ==> Localization (IBO) <==

  ==> IBO Localizer 2 <==

    MinAO Basis = CC-PVTZ-MINAO
    Use Ghosts  =       FALSE
    Use Stars   =       FALSE
    Condition   =   1.000E-07
    Power       =           4
    Convergence =   1.000E-12
    Maxiter     =         200

    @IBO Iter:                   Metric       Gradient
    @IBO    1:   1.9581217794225030E+00   2.639732E+00
    @IBO    2:   2.1413397475117759E+00   1.291865E+00
    @IBO    3:   2.2004093249952268E+00   8.278401E-01
    @IBO    4:   2.2077382937949368E+00   1.990357E-01
    @IBO    5:   2.2079747800739540E+00   3.917058E-03
    @IBO    6:   2.2079748577667684E+00   1.065637E-04
    @IBO    7:   2.2079748581026699E+00   1.915687E-05
    @IBO    8:   2.2079748581163443E+00   3.883934E-06
    @IBO    9:   2.2079748581169447E+00   8.014788E-07
    @IBO   10:   2.2079748581169709E+00   1.657844E-07
    @IBO   11:   2.2079748581169718E+00   3.425586E-08
    @IBO   12:   2.2079748581169718E+00   7.072556E-09
    @IBO   13:   2.2079748581169718E+00   1.460488E-09
    @IBO   14:   2.2079748581169718E+00   3.019294E-10
    @IBO   15:   2.2079748581169718E+00   6.253378E-11
    @IBO   16:   2.2079748581169722E+00   1.298253E-11
    @IBO   17:   2.2079748581169727E+00   2.702767E-12
    @IBO   18:   2.2079748581169727E+00   5.644073E-13

    IBO Localizer 2 converged.

  ==> Partitioning <==

   => Atomic Partitioning <= 

    Monomer A:  12 atoms
    Monomer B:  12 atoms
    Monomer C:   6 atoms

   => Link Bond Identification <=

    Link Bond Selection = AUTOMATIC

    Charge Completeness = 0.800

    Total Link Bonds = 2

    --------------------------
    N     Orb Type Aind1 Aind2
    --------------------------
    1      24   BC    13    28
    2      49   AC     1    25
    --------------------------

   => Link Bond Assignment <=

    Link Bond Assignment      = C

   => Partition Summary <=

    Monomer A:  0 charge,  48 protons,  48 electrons,  24 docc
    Monomer B:  0 charge,  48 protons,  48 electrons,  24 docc
    Monomer C:  0 charge,  18 protons,  18 electrons,   9 docc

  ==> Overlap Integrals <==

  ==> Kinetic Integrals <==

  ==> Nuclear Integrals <==

    Nuclear Repulsion Tot:   9.8470469625974636E+02 [Eh]

  ==> Coulomb Integrals <==

  DFHelper Memory: AOs need 1.296 GiB; user supplied 10.544 GiB. Using in-core AOs.

  ==> MemDFJK: Density-Fitted J/K Matrices <==

    J tasked:                   Yes
    K tasked:                   Yes
    wK tasked:                   No
    OpenMP threads:               1
    Memory [MiB]:             10800
    Algorithm:                 Core
    Schwarz Cutoff:           1E-12
    Mask sparsity (%):      17.0251
    Fitting Condition:        1E-10

   => Auxiliary Basis Set <=

  Basis Set: (JUN-CC-PVDZ AUX)
    Blend: JUN-CC-PVDZ-JKFIT
    Number of shells: 558
    Number of basis functions: 1586
    Number of Cartesian functions: 1806
    Spherical Harmonics?: true
    Max angular momentum: 3

  ==> Relaxed SCF Equations <==

  ==> SCF A: <==

    Maxiter =         100
    E Tol   =   1.000E-08
    D Tol   =   1.000E-08

    Max DIIS Vectors = 10

    Iter   N:                        E          dE         |D|
    Iter   1:  -2.9740852938076284E+02  -2.974E+02   5.123E-04 
    Iter   2:  -2.9741212790284271E+02  -3.599E-03   1.918E-05 DIIS
    Iter   3:  -2.9741215941987696E+02  -3.152E-05   6.358E-06 DIIS
    Iter   4:  -2.9741216274878326E+02  -3.329E-06   3.136E-06 DIIS
    Iter   5:  -2.9741216361919714E+02  -8.704E-07   7.183E-07 DIIS
    Iter   6:  -2.9741216370440299E+02  -8.521E-08   2.749E-07 DIIS
    Iter   7:  -2.9741216371647408E+02  -1.207E-08   8.938E-08 DIIS
    Iter   8:  -2.9741216371863754E+02  -2.163E-09   4.528E-08 DIIS
    Iter   9:  -2.9741216371927737E+02  -6.398E-10   1.940E-08 DIIS
    Iter  10:  -2.9741216371942363E+02  -1.463E-10   4.773E-09 DIIS

    FISAPTSCF Converged.

    Final SCF Energy:  -2.9741216371942363E+02 [Eh]

   => Occupied Orbital Energies <=

       1  -20.587385     2  -11.303415     3  -11.243289  
       4  -11.241594     5  -11.234241     6  -11.229401  
       7  -11.229021     8   -1.229717     9   -1.126654  
      10   -1.020330    11   -0.968590    12   -0.832547  
      13   -0.790754    14   -0.689409    15   -0.652290  
      16   -0.616940    17   -0.589094    18   -0.587750  
      19   -0.576760    20   -0.515345    21   -0.492422  
      22   -0.481641    23   -0.340405    24   -0.312366  

   => Virtual Orbital Energies <=

      25    0.027758    26    0.046964    27    0.059108  
      28    0.064648    29    0.068754    30    0.072900  
      31    0.079969    32    0.084292    33    0.090958  
      34    0.094191    35    0.101701    36    0.101836  
      37    0.107876    38    0.113715    39    0.115506  
      40    0.120748    41    0.125985    42    0.128193  
      43    0.130004    44    0.133499    45    0.140827  
      46    0.147001    47    0.153843    48    0.155039  
      49    0.161302    50    0.163286    51    0.164821  
      52    0.171260    53    0.175531    54    0.176570  
      55    0.182603    56    0.184937    57    0.186922  
      58    0.195852    59    0.200011    60    0.205640  
      61    0.207248    62    0.213426    63    0.215967  
      64    0.221701    65    0.227730    66    0.228879  
      67    0.234788    68    0.239035    69    0.245463  
      70    0.261982    71    0.265232    72    0.271263  
      73    0.274478    74    0.277428    75    0.282578  
      76    0.283797    77    0.291310    78    0.293490  
      79    0.295206    80    0.301609    81    0.303584  
      82    0.305923    83    0.320074    84    0.328100  
      85    0.336366    86    0.351618    87    0.363241  
      88    0.372650    89    0.377728    90    0.386658  
      91    0.390837    92    0.399761    93    0.400382  
      94    0.404768    95    0.409526    96    0.420886  
      97    0.424773    98    0.430497    99    0.438778  
     100    0.445386   101    0.450480   102    0.451955  
     103    0.454772   104    0.458061   105    0.465813  
     106    0.476423   107    0.481716   108    0.483852  
     109    0.489662   110    0.506181   111    0.506604  
     112    0.516741   113    0.521980   114    0.532959  
     115    0.544312   116    0.566928   117    0.572230  
     118    0.593822   119    0.596744   120    0.606341  
     121    0.614036   122    0.623505   123    0.646005  
     124    0.652731   125    0.670517   126    0.709397  
     127    0.717781   128    0.734356   129    0.742486  
     130    0.759219   131    0.766075   132    0.793414  
     133    0.796817   134    0.805377   135    0.821569  
     136    0.826149   137    0.833261   138    0.860891  
     139    0.871652   140    0.872006   141    0.878759  
     142    0.896284   143    0.908286   144    0.911805  
     145    0.930500   146    0.933622   147    0.942308  
     148    0.948961   149    0.960021   150    0.963281  
     151    0.969707   152    0.974733   153    0.977295  
     154    0.984900   155    0.990629   156    1.000966  
     157    1.004074   158    1.029805   159    1.035198  
     160    1.053956   161    1.066142   162    1.090344  
     163    1.099070   164    1.107491   165    1.133701  
     166    1.154060   167    1.170423   168    1.175597  
     169    1.186577   170    1.196233   171    1.222616  
     172    1.239237   173    1.247007   174    1.253664  
     175    1.262558   176    1.271660   177    1.278554  
     178    1.290320   179    1.308112   180    1.317342  
     181    1.347519   182    1.368530   183    1.373573  
     184    1.384972   185    1.398069   186    1.456172  
     187    1.500040   188    1.519721   189    1.525740  
     190    1.536574   191    1.635391   192    1.642128  
     193    1.653436   194    1.680061   195    1.703224  
     196    1.718886   197    1.729817   198    1.749257  
     199    1.756226   200    1.760669   201    1.771952  
     202    1.782268   203    1.791844   204    1.796116  
     205    1.804027   206    1.805633   207    1.808787  
     208    1.843501   209    1.860246   210    1.864299  
     211    1.890944   212    1.911409   213    1.914411  
     214    1.920150   215    1.927135   216    1.933420  
     217    1.943658   218    1.949565   219    1.952686  
     220    1.967280   221    1.980473   222    1.987557  
     223    1.988354   224    1.995268   225    1.999731  
     226    2.004940   227    2.019302   228    2.027234  
     229    2.038978   230    2.041138   231    2.047585  
     232    2.066711   233    2.072768   234    2.080052  
     235    2.091746   236    2.102377   237    2.120441  
     238    2.127149   239    2.133333   240    2.141890  
     241    2.150039   242    2.176968   243    2.182373  
     244    2.184437   245    2.185478   246    2.194798  
     247    2.200665   248    2.203383   249    2.208265  
     250    2.213346   251    2.233222   252    2.257080  
     253    2.261619   254    2.276185   255    2.278101  
     256    2.292609   257    2.305379   258    2.310418  
     259    2.327991   260    2.355410   261    2.393260  
     262    2.408268   263    2.414281   264    2.419143  
     265    2.432603   266    2.435911   267    2.444260  
     268    2.461220   269    2.490515   270    2.514449  
     271    2.516021   272    2.522500   273    2.531885  
     274    2.540491   275    2.552993   276    2.564407  
     277    2.588928   278    2.613729   279    2.648730  
     280    2.663975   281    2.697077   282    2.709991  
     283    2.759116   284    2.769348   285    2.782872  
     286    2.791206   287    2.808838   288    2.820774  
     289    2.835989   290    2.840369   291    2.860185  
     292    2.868899   293    2.890773   294    2.908994  
     295    2.917617   296    2.951109   297    3.015395  
     298    3.036614   299    3.051107   300    3.058567  
     301    3.102627   302    3.105265   303    3.118094  
     304    3.127338   305    3.130016   306    3.193032  
     307    3.202277   308    3.242952   309    3.258968  
     310    3.292749   311    3.296156   312    3.406708  
     313    3.430022   314    3.481472   315    3.540659  
     316    3.565944   317    3.597183   318    3.651315  
     319    3.703571   320    3.753351   321    3.856197  
     322    3.920017   323    4.124289   324    4.145935  
     325    4.279798   326    4.305191   327    4.342747  
     328    4.349143   329    4.450959   330    4.513339  
     331    4.596309   332    4.766877   333    4.930017  
     334    5.061840   335    5.077483   336    5.400101  
     337    5.409190   338    5.470762   339    5.493692  
     340    5.568030   341    5.698615   342    6.030862  
     343   17.977298   344   18.126080   345   18.139855  
     346   18.588209   347   18.618663   348   19.264328  
     349   26.469044  

  ==> SCF B: <==

    Maxiter =         100
    E Tol   =   1.000E-08
    D Tol   =   1.000E-08

    Max DIIS Vectors = 10

    Iter   N:                        E          dE         |D|
    Iter   1:  -2.9738192841679262E+02  -2.974E+02   3.816E-04 
    Iter   2:  -2.9738444740677551E+02  -2.519E-03   1.609E-05 DIIS
    Iter   3:  -2.9738447123280366E+02  -2.383E-05   4.852E-06 DIIS
    Iter   4:  -2.9738447345613395E+02  -2.223E-06   2.657E-06 DIIS
    Iter   5:  -2.9738447411357544E+02  -6.574E-07   6.473E-07 DIIS
    Iter   6:  -2.9738447421300555E+02  -9.943E-08   3.337E-07 DIIS
    Iter   7:  -2.9738447423865904E+02  -2.565E-08   1.491E-07 DIIS
    Iter   8:  -2.9738447424721528E+02  -8.556E-09   4.858E-08 DIIS
    Iter   9:  -2.9738447424798301E+02  -7.677E-10   1.611E-08 DIIS
    Iter  10:  -2.9738447424804326E+02  -6.025E-11   4.289E-09 DIIS

    FISAPTSCF Converged.

    Final SCF Energy:  -2.9738447424804326E+02 [Eh]

   => Occupied Orbital Energies <=

       1  -20.588494     2  -11.302887     3  -11.243535  
       4  -11.242062     5  -11.234547     6  -11.230135  
       7  -11.229541     8   -1.232317     9   -1.127715  
      10   -1.020784    11   -0.969757    12   -0.833266  
      13   -0.791294    14   -0.690625    15   -0.653031  
      16   -0.617531    17   -0.589597    18   -0.587563  
      19   -0.578722    20   -0.515548    21   -0.493038  
      22   -0.481466    23   -0.340582    24   -0.312436  

   => Virtual Orbital Energies <=

      25    0.028132    26    0.050429    27    0.058471  
      28    0.061583    29    0.066348    30    0.077132  
      31    0.080438    32    0.083790    33    0.093206  
      34    0.097709    35    0.099736    36    0.104976  
      37    0.107486    38    0.109750    39    0.114669  
      40    0.118656    41    0.122350    42    0.129354  
      43    0.132896    44    0.137353    45    0.141720  
      46    0.145054    47    0.148986    48    0.154892  
      49    0.160222    50    0.163092    51    0.167169  
      52    0.170283    53    0.175670    54    0.179917  
      55    0.180863    56    0.185175    57    0.193505  
      58    0.197944    59    0.198965    60    0.201768  
      61    0.209311    62    0.214110    63    0.215035  
      64    0.222405    65    0.229104    66    0.233338  
      67    0.241722    68    0.246052    69    0.249215  
      70    0.251257    71    0.259766    72    0.265564  
      73    0.271254    74    0.275901    75    0.277264  
      76    0.284162    77    0.285360    78    0.294251  
      79    0.296291    80    0.298311    81    0.311262  
      82    0.320045    83    0.334025    84    0.336443  
      85    0.341811    86    0.345316    87    0.364691  
      88    0.365563    89    0.376674    90    0.378973  
      91    0.386261    92    0.391745    93    0.393627  
      94    0.404224    95    0.410349    96    0.422041  
      97    0.424256    98    0.428976    99    0.436873  
     100    0.440310   101    0.444678   102    0.454002  
     103    0.457819   104    0.459709   105    0.468081  
     106    0.474806   107    0.484166   108    0.492634  
     109    0.496640   110    0.503442   111    0.505556  
     112    0.517325   113    0.530254   114    0.540747  
     115    0.542915   116    0.554863   117    0.571251  
     118    0.582005   119    0.591964   120    0.597613  
     121    0.619765   122    0.624836   123    0.640238  
     124    0.647452   125    0.676060   126    0.713847  
     127    0.726861   128    0.737508   129    0.748495  
     130    0.759327   131    0.767414   132    0.786850  
     133    0.801365   134    0.812533   135    0.823935  
     136    0.829302   137    0.834667   138    0.854922  
     139    0.866725   140    0.880591   141    0.887181  
     142    0.904068   143    0.914331   144    0.920706  
     145    0.923034   146    0.929803   147    0.938598  
     148    0.947215   149    0.962825   150    0.965244  
     151    0.971796   152    0.977271   153    0.981236  
     154    0.983045   155    0.994872   156    1.000770  
     157    1.013922   158    1.022795   159    1.046390  
     160    1.054006   161    1.066497   162    1.081974  
     163    1.097800   164    1.126994   165    1.136898  
     166    1.148805   167    1.150489   168    1.169371  
     169    1.179613   170    1.207571   171    1.227570  
     172    1.235230   173    1.239829   174    1.249115  
     175    1.250004   176    1.265464   177    1.273663  
     178    1.287010   179    1.322052   180    1.334462  
     181    1.366127   182    1.367699   183    1.375219  
     184    1.384411   185    1.407888   186    1.477300  
     187    1.510176   188    1.518260   189    1.526964  
     190    1.548267   191    1.607564   192    1.634612  
     193    1.647979   194    1.662680   195    1.681195  
     196    1.719869   197    1.745954   198    1.748974  
     199    1.753608   200    1.763157   201    1.769962  
     202    1.777856   203    1.790753   204    1.796121  
     205    1.800587   206    1.808909   207    1.816878  
     208    1.836433   209    1.853266   210    1.864385  
     211    1.876559   212    1.890784   213    1.906670  
     214    1.915841   215    1.921437   216    1.924991  
     217    1.934907   218    1.945041   219    1.957227  
     220    1.962056   221    1.970560   222    1.979463  
     223    1.988566   224    1.995984   225    1.998865  
     226    2.008649   227    2.012205   228    2.031062  
     229    2.036755   230    2.042761   231    2.048046  
     232    2.069208   233    2.075713   234    2.084994  
     235    2.099616   236    2.103252   237    2.121165  
     238    2.136683   239    2.139729   240    2.144849  
     241    2.149003   242    2.161568   243    2.179128  
     244    2.182714   245    2.188904   246    2.192609  
     247    2.193830   248    2.200538   249    2.207892  
     250    2.216877   251    2.221592   252    2.238761  
     253    2.259744   254    2.275783   255    2.293376  
     256    2.302502   257    2.317044   258    2.320256  
     259    2.337030   260    2.348845   261    2.376785  
     262    2.382604   263    2.396968   264    2.416844  
     265    2.436723   266    2.441269   267    2.453131  
     268    2.473926   269    2.485288   270    2.496146  
     271    2.512213   272    2.523519   273    2.530823  
     274    2.547050   275    2.573293   276    2.583707  
     277    2.586638   278    2.626118   279    2.651823  
     280    2.653669   281    2.690221   282    2.715221  
     283    2.768182   284    2.772948   285    2.799530  
     286    2.802538   287    2.811984   288    2.820902  
     289    2.830378   290    2.840796   291    2.849065  
     292    2.866692   293    2.903174   294    2.917071  
     295    2.949120   296    2.954652   297    3.021739  
     298    3.037236   299    3.047848   300    3.060757  
     301    3.089738   302    3.102481   303    3.115506  
     304    3.126739   305    3.138684   306    3.195287  
     307    3.201069   308    3.245939   309    3.270321  
     310    3.292310   311    3.307488   312    3.404885  
     313    3.448336   314    3.459375   315    3.554707  
     316    3.563948   317    3.595776   318    3.646515  
     319    3.709219   320    3.767436   321    3.857397  
     322    3.891931   323    4.130734   324    4.143576  
     325    4.280656   326    4.305160   327    4.338585  
     328    4.344766   329    4.447687   330    4.527839  
     331    4.577403   332    4.764002   333    4.945563  
     334    5.063737   335    5.114278   336    5.380915  
     337    5.406968   338    5.460049   339    5.477572  
     340    5.557895   341    5.697563   342    6.019743  
     343   17.972818   344   18.124682   345   18.136928  
     346   18.583556   347   18.612957   348   19.261335  
     349   26.459306  

  ==> Frozen Core <==


    ------------------
    Range      A     B
    ------------------
    nbf      358   358
    nmo      349   349
    nocc      24    24
    nvir     325   325
    nfocc      7     7
    naocc     17    17
    navir    325   325
    nfvir      0     0
    ------------------

  ==> Unification <==

  ==> dHF <==

    E ABC(HF) =  -6.8807679309143350E+02 [Eh]
    E AC(0)   =  -3.8089730948496822E+02 [Eh]
    E BC(0)   =  -3.8088836209019837E+02 [Eh]
    E A(0)    =  -2.8266349768785955E+02 [Eh]
    E B(0)    =  -2.8267798996947204E+02 [Eh]
    E AC(HF)  =  -3.8089367514630760E+02 [Eh]
    E BC(HF)  =  -3.8088581625894790E+02 [Eh]
    E AB(HF)  =  -5.6532772772401563E+02 [Eh]
    E A(HF)   =  -2.8265218542306667E+02 [Eh]
    E B(HF)   =  -2.8267015471908314E+02 [Eh]
    E C       =  -7.3708085895688228E+01 [Eh]
    E HF      =   7.9258804485959899E-04 [Eh]

  ==> Electrostatics <==

    Elst10,r            =     0.000832933756 [Eh]

  ==> Exchange <==

    Exch10(S^2)         =     0.001316641811 [Eh]
    Exch10              =     0.001316599297 [Eh]

  ==> Induction <==

    Ind20,u (A<-B)      =    -0.001492033547 [Eh]
    Ind20,u (B<-A)      =    -0.001214176228 [Eh]
    Ind20,u             =    -0.002706209775 [Eh]
    Exch-Ind20,u (A<-B) =     0.000943439464 [Eh]
    Exch-Ind20,u (B<-A) =     0.000812280494 [Eh]
    Exch-Ind20,u        =     0.001755719958 [Eh]

  ==> CPHF Iterations <==

    Maxiter     =         100
    Convergence =   1.000E-08

    -----------------------------------------
    Iter   Monomer A    Monomer B    Time [s]
    -----------------------------------------
    1      1.132E-01    1.085E-01           2
    2      3.805E-02    3.291E-02           4
    3      1.068E-02    1.246E-02           6
    4      3.803E-03    3.959E-03           7
    5      1.270E-03    2.531E-03           9
    6      5.112E-04    6.289E-04          11
    7      2.716E-04    2.704E-04          13
    8      6.016E-05    5.685E-05          15
    9      2.066E-05    1.957E-05          17
    10     7.166E-06    5.794E-06          19
    11     1.914E-06    2.067E-06          21
    12     3.915E-07    6.615E-07          23
    13     1.710E-07    4.031E-07          25
    14     4.140E-08    8.985E-08          26
    15     2.016E-08    2.769E-08          28
    16     8.348E-09*   5.813E-09*         30
    -----------------------------------------

    Ind20,r (A<-B)      =    -0.001686750167 [Eh]
    Ind20,r (B<-A)      =    -0.001369359391 [Eh]
    Ind20,r             =    -0.003056109559 [Eh]
    Exch-Ind20,r (A<-B) =     0.001058639582 [Eh]
    Exch-Ind20,r (B<-A) =     0.000900965801 [Eh]
    Exch-Ind20,r        =     0.001959605383 [Eh]

  ==> F-SAPT Localization (IBO) <==

  Local Orbitals for Monomer A:

  ==> IBO Localizer 2 <==

    MinAO Basis = CC-PVTZ-MINAO
    Use Ghosts  =       FALSE
    Use Stars   =       FALSE
    Condition   =   1.000E-07
    Power       =           4
    Convergence =   1.000E-12
    Maxiter     =        1000

    @IBO Iter:                   Metric       Gradient
    @IBO    1:   1.6185991441539689E+00   1.497418E+00
    @IBO    2:   1.7482399462105926E+00   7.122227E-01
    @IBO    3:   1.7900704697217458E+00   4.436487E-01
    @IBO    4:   1.7949221048061175E+00   2.474913E-02
    @IBO    5:   1.7949359440433463E+00   6.772002E-04
    @IBO    6:   1.7949359567276226E+00   6.356033E-05
    @IBO    7:   1.7949359569096561E+00   9.342898E-06
    @IBO    8:   1.7949359569141390E+00   1.516299E-06
    @IBO    9:   1.7949359569142769E+00   2.834700E-07
    @IBO   10:   1.7949359569142826E+00   6.008113E-08
    @IBO   11:   1.7949359569142826E+00   1.349758E-08
    @IBO   12:   1.7949359569142829E+00   3.064781E-09
    @IBO   13:   1.7949359569142826E+00   6.904774E-10
    @IBO   14:   1.7949359569142826E+00   1.536421E-10
    @IBO   15:   1.7949359569142829E+00   3.377155E-11
    @IBO   16:   1.7949359569142826E+00   7.343698E-12
    @IBO   17:   1.7949359569142826E+00   1.582475E-12
    @IBO   18:   1.7949359569142826E+00   3.384512E-13

    IBO Localizer 2 converged.

  Local Orbitals for Monomer B:

  ==> IBO Localizer 2 <==

    MinAO Basis = CC-PVTZ-MINAO
    Use Ghosts  =       FALSE
    Use Stars   =       FALSE
    Condition   =   1.000E-07
    Power       =           4
    Convergence =   1.000E-12
    Maxiter     =        1000

    @IBO Iter:                   Metric       Gradient
    @IBO    1:   1.6260344751824616E+00   1.410883E+00
    @IBO    2:   1.7506410242425672E+00   6.871894E-01
    @IBO    3:   1.7906063008257431E+00   4.320727E-01
    @IBO    4:   1.7947262653442098E+00   1.268195E-02
    @IBO    5:   1.7947318091685094E+00   4.572602E-04
    @IBO    6:   1.7947318140602571E+00   3.160792E-05
    @IBO    7:   1.7947318141039956E+00   4.487561E-06
    @IBO    8:   1.7947318141049706E+00   6.672619E-07
    @IBO    9:   1.7947318141049948E+00   1.043596E-07
    @IBO   10:   1.7947318141049959E+00   1.837617E-08
    @IBO   11:   1.7947318141049957E+00   3.776269E-09
    @IBO   12:   1.7947318141049959E+00   8.545655E-10
    @IBO   13:   1.7947318141049959E+00   1.985044E-10
    @IBO   14:   1.7947318141049959E+00   4.581817E-11
    @IBO   15:   1.7947318141049957E+00   1.041541E-11
    @IBO   16:   1.7947318141049957E+00   2.330478E-12
    @IBO   17:   1.7947318141049955E+00   5.141422E-13

    IBO Localizer 2 converged.

  ==> F-SAPT Electrostatics <==

  DFHelper Memory: AOs need 1.554 GiB; user supplied 10.547 GiB. Using in-core AOs.

  ==> DFHelper <==
    NBF:                             358
    NAux:                           1586
    Schwarz Cutoff:                1E-12
    Mask sparsity (%):                17
    DFH Avail. Memory [GiB]:      10.547
    OpenMP threads:                    1
    Algorithm:                DIRECT_iaQ
    AO Core:                        True
    MO Core:                       False
    Hold Metric:                   False
    Metric Power:                 -0.500
    Fitting Condition:             1E-12
    Q Shell Max:                       7


    Elst10,r            =     0.000832933765 [Eh]

  ==> F-SAPT Exchange <==

    Exch10(S^2)         =     0.001316641811 [Eh]

    Scaling F-SAPT Exch10(S^2) by   1.000E+00 to match Exch10

  ==> F-SAPT Induction <==

    Ind20,u (A<-B)      =    -0.001492033547 [Eh]
    Ind20,u (B<-A)      =    -0.001214176228 [Eh]
    Ind20,u             =    -0.002706209775 [Eh]
    Exch-Ind20,u (A<-B) =     0.000943439464 [Eh]
    Exch-Ind20,u (B<-A) =     0.000812280494 [Eh]
    Exch-Ind20,u        =     0.001755719958 [Eh]

    Scaling for delta HF        =   1.238E+00
    Scaling for response (A<-B) =   1.145E+00
    Scaling for response (B<-A) =   1.165E+00
    Scaling for total (A<-B)    =   1.417E+00
    Scaling for total (B<-A)    =   1.442E+00

  ==> F-SAPT Dispersion <==

  DFHelper Memory: AOs need 1.213 GiB; user supplied 10.541 GiB. Using in-core AOs.

  ==> DFHelper <==
    NBF:                             358
    NAux:                           1236
    Schwarz Cutoff:                1E-12
    Mask sparsity (%):                17
    DFH Avail. Memory [GiB]:      10.541
    OpenMP threads:                    1
    Algorithm:                DIRECT_iaQ
    AO Core:                        True
    MO Core:                       False
    Hold Metric:                   False
    Metric Power:                 -0.500
    Fitting Condition:             1E-12
    Q Shell Max:                       7


    1415577600 doubles - 1587685 overhead leaves 1413989915 for dispersion
    Processing a single (r,s) pair requires 168096 doubles
    325 values of r processed in 1 blocks of 325
    325 values of s processed in 1 blocks of 325

    Disp20              =    -0.001216717489 [Eh]
    Exch-Disp20         =     0.000071777975 [Eh]

  ==> F-SAPT Output <==

    F-SAPT Data Filepath = fsapt/

  ==> Scalar Field Plots <==

    F-SAPT Plot Filepath = plot/

  ==> CubicScalarGrid <==

    Filepath     = plot/
    Total Points =          1189377
    XYZ Blocking =               10
    X Points     =              147
    Y Points     =               87
    Z Points     =               93
    X Spacing    =        2.000E-01
    Y Spacing    =        2.000E-01
    Z Spacing    =        2.000E-01
    X Minimum    =       -1.414E+01
    Y Minimum    =       -8.075E+00
    Z Minimum    =       -9.143E+00
    X Maximum    =        1.506E+01
    Y Maximum    =        9.125E+00
    Z Maximum    =        9.257E+00

  Basis Set: JUN-CC-PVDZ
    Blend: JUN-CC-PVDZ
    Number of shells: 170
    Number of basis functions: 358
    Number of Cartesian functions: 374
    Spherical Harmonics?: true
    Max angular momentum: 2

*********************************************************************************************************************
When computing potential integrals with different bra and ket basis, the atom definition is taken from the bra basis.
*********************************************************************************************************************
*********************************************************************************************************************
When computing potential integrals with different bra and ket basis, the atom definition is taken from the bra basis.
*********************************************************************************************************************
*********************************************************************************************************************
When computing potential integrals with different bra and ket basis, the atom definition is taken from the bra basis.
*********************************************************************************************************************
  ==> Results <==


    SAPT Results  
  --------------------------------------------------------------------------------------------------------
    Electrostatics                  0.83293376 [mEh]       0.52267382 [kcal/mol]       2.18686728 [kJ/mol]
      Elst10,r                      0.83293376 [mEh]       0.52267382 [kcal/mol]       2.18686728 [kJ/mol]

    Exchange                        1.31659930 [mEh]       0.82617853 [kcal/mol]       3.45673098 [kJ/mol]
      Exch10                        1.31659930 [mEh]       0.82617853 [kcal/mol]       3.45673098 [kJ/mol]
      Exch10(S^2)                   1.31664181 [mEh]       0.82620521 [kcal/mol]       3.45684260 [kJ/mol]

    Induction                      -1.35694501 [mEh]      -0.85149585 [kcal/mol]      -3.56265863 [kJ/mol]
      Ind20,r                      -3.05610956 [mEh]      -1.91773770 [kcal/mol]      -8.02381454 [kJ/mol]
      Exch-Ind20,r                  1.95960538 [mEh]       1.22967094 [kcal/mol]       5.14494322 [kJ/mol]
      delta HF,r (2)               -0.26044083 [mEh]      -0.16342909 [kcal/mol]      -0.68378731 [kJ/mol]
      Induction (A<-B)             -0.77729893 [mEh]      -0.48776244 [kcal/mol]      -2.04079806 [kJ/mol]
      Induction (B<-A)             -0.57964608 [mEh]      -0.36373340 [kcal/mol]      -1.52186057 [kJ/mol]

    Dispersion                     -1.14493951 [mEh]      -0.71846039 [kcal/mol]      -3.00603828 [kJ/mol]
      Disp20                       -1.21671749 [mEh]      -0.76350175 [kcal/mol]      -3.19449133 [kJ/mol]
      Exch-Disp20                   0.07177797 [mEh]       0.04504136 [kcal/mol]       0.18845305 [kJ/mol]

  Total HF                          0.79258804 [mEh]       0.49735651 [kcal/mol]       2.08093963 [kJ/mol]
  Total SAPT0                      -0.35235147 [mEh]      -0.22110388 [kcal/mol]      -0.92509865 [kJ/mol]

  --------------------------------------------------------------------------------------------------------
    Han Solo: This is *not* gonna work.
    Luke Skywalker: Why didn't you say so before?
    Han Solo: I *did* say so before.

    Psi4 stopped on: Thursday, 09 November 2023 02:49PM
    Psi4 wall time for execution: 0:13:14.40

*** Psi4 exiting successfully. Buy a developer a beer!
