
    -----------------------------------------------------------------------
          Psi4: An Open-Source Ab Initio Electronic Structure Package
                               Psi4 1.7 release

                         Git: Rev {HEAD} 6ce35a5 


    D. G. A. Smith, L. A. Burns, A. C. Simmonett, R. M. Parrish,
    M. C. Schieber, R. Galvelis, P. Kraus, H. Kruse, R. Di Remigio,
    A. Alenaizan, A. M. James, S. Lehtola, J. P. Misiewicz, M. Scheurer,
    R. A. Shaw, J. B. Schriber, Y. Xie, Z. L. Glick, D. A. Sirianni,
    J. S. O'Brien, J. M. Waldrop, A. Kumar, E. G. Hohenstein,
    B. P. Pritchard, B. R. Brooks, H. F. Schaefer III, A. Yu. Sokolov,
    K. Patkowski, A. E. DePrince III, U. Bozkaya, R. A. King,
    F. A. Evangelista, J. M. Turney, T. D. Crawford, C. D. Sherrill,
    J. Chem. Phys. 152(18) 184108 (2020). https://doi.org/10.1063/5.0006002

                            Additional Code Authors
    E. T. Seidl, C. L. Janssen, E. F. Valeev, M. L. Leininger,
    J. F. Gonthier, R. M. Richard, H. R. McAlexander, M. Saitow, X. Wang,
    P. Verma, M. H. Lechner, A. Jiang, S. Behnle, A. G. Heide,
    M. F. Herbst, and D. L. Poole

             Previous Authors, Complete List of Code Contributors,
                       and Citations for Specific Modules
    https://github.com/psi4/psi4/blob/master/codemeta.json
    https://github.com/psi4/psi4/graphs/contributors
    http://psicode.org/psi4manual/master/introduction.html#citing-psifour

    -----------------------------------------------------------------------


    Psi4 started on: Thursday, 09 November 2023 02:49PM

    Process ID: 12408
    Host:       DESKTOP-D4OA462
    PSIDATADIR: C:\Users\Ivan\.conda\envs\psi4\lib\share\psi4
    Memory:     500.0 MiB
    Threads:    1
    
  ==> Input File <==

--------------------------------------------------------------------------
memory 12000 MiB
mol = psi4.core.Molecule.from_arrays(
    elez=[8,6,6,6,6,6,6,1,1,1,1,1,8,6,6,6,6,6,6,1,1,1,1,1,6,1,1,6,1,1],
    fragment_separators=[12, 24],
    fix_com=True,
    fix_orientation=True,
    fix_symmetry='c1',
    fragment_multiplicities=[2, 2, 1],
    molecular_charge=0,
    molecular_multiplicity=1,
    geom= [
       -1.298211073,      1.069146181,     -0.031432760,
       -2.362291644,      0.265614244,     -0.265700981,
       -2.738530128,     -0.795123940,      0.550841567,
       -3.105670814,      0.559642853,     -1.407011591,
       -3.854785352,     -1.552716473,      0.215798772,
       -4.212649957,     -0.201753114,     -1.724979252,
       -4.596495468,     -1.265253698,     -0.915618810,
       -2.176825122,     -1.038370535,      1.442023161,
       -2.793024567,      1.388798469,     -2.029123529,
       -4.140400945,     -2.378133152,      0.857092561,
       -4.782573540,      0.035365084,     -2.615349171,
       -5.464647087,     -1.860653878,     -1.167520952,
                                                        
        1.568929418,      1.544611669,      0.023837713,
        2.456053314,      0.525234558,      0.126639388,
        3.235606499,      0.291964633,     -1.004934530,
        2.638727453,     -0.261272061,      1.260052813,
        4.187111169,     -0.708749552,     -0.998113557,
        3.601621500,     -1.263327092,      1.252077990,
        4.379277830,     -1.495437151,      0.131897954,
        3.074472678,      0.911531008,     -1.877984459,
        2.045123853,     -0.109210074,      2.150661072,
        4.785403999,     -0.877695764,     -1.885515790,
        3.735685255,     -1.868633627,      2.140834051,
        5.124532464,     -2.280642897,      0.134249249,
                                                        
       -0.488934144,      0.794268058,      1.086043372,
       -1.059332758,      0.920687850,      2.015752748,
       -0.118878006,     -0.235784661,      1.045887261,
        0.659709772,      1.772217814,      1.075007525,
        0.270336376,      2.776505316,      0.905791046,
        1.166412478,      1.765118076,      2.044908563])
activate(mol)       
                    
set {               
basis jun-cc-pvdz   
scf_type df
guess sad
freeze_core true
fisapt_do_plot true
}
energy('fisapt0')
--------------------------------------------------------------------------

  Memory set to  11.719 GiB by Python driver.

Scratch directory: C:\Users\Ivan\AppData\Local\Temp/

*** tstart() called on DESKTOP-D4OA462
*** at Thu Nov  9 14:49:30 2023

   => Loading Basis Set <=

    Name: JUN-CC-PVDZ
    Role: ORBITAL
    Keyword: BASIS
    atoms 1, 13                     entry O          line   232 file C:\Users\Ivan\.conda\envs\psi4\lib\share\psi4\basis\jun-cc-pvdz.gbs 
    atoms 2-7, 14-19, 25, 28        entry C          line   164 file C:\Users\Ivan\.conda\envs\psi4\lib\share\psi4\basis\jun-cc-pvdz.gbs 
    atoms 8-12, 20-24, 26-27, 29-30 entry H          line    36 file C:\Users\Ivan\.conda\envs\psi4\lib\share\psi4\basis\jun-cc-pvdz.gbs 


         ---------------------------------------------------------
                                   SCF
               by Justin Turney, Rob Parrish, Andy Simmonett
                          and Daniel G. A. Smith
                              RHF Reference
                        1 Threads,   -288 MiB Core
         ---------------------------------------------------------

  ==> Geometry <==

    Molecular point group: c1
    Full point group: C1

    Geometry (in Angstrom), charge = 0, multiplicity = 1:

       Center              X                  Y                   Z               Mass       
    ------------   -----------------  -----------------  -----------------  -----------------
         O           -1.298211073000     1.069146181000    -0.031432760000    15.994914619570
         C           -2.362291644000     0.265614244000    -0.265700981000    12.000000000000
         C           -2.738530128000    -0.795123940000     0.550841567000    12.000000000000
         C           -3.105670814000     0.559642853000    -1.407011591000    12.000000000000
         C           -3.854785352000    -1.552716473000     0.215798772000    12.000000000000
         C           -4.212649957000    -0.201753114000    -1.724979252000    12.000000000000
         C           -4.596495468000    -1.265253698000    -0.915618810000    12.000000000000
         H           -2.176825122000    -1.038370535000     1.442023161000     1.007825032230
         H           -2.793024567000     1.388798469000    -2.029123529000     1.007825032230
         H           -4.140400945000    -2.378133152000     0.857092561000     1.007825032230
         H           -4.782573540000     0.035365084000    -2.615349171000     1.007825032230
         H           -5.464647087000    -1.860653878000    -1.167520952000     1.007825032230
         O            1.568929418000     1.544611669000     0.023837713000    15.994914619570
         C            2.456053314000     0.525234558000     0.126639388000    12.000000000000
         C            3.235606499000     0.291964633000    -1.004934530000    12.000000000000
         C            2.638727453000    -0.261272061000     1.260052813000    12.000000000000
         C            4.187111169000    -0.708749552000    -0.998113557000    12.000000000000
         C            3.601621500000    -1.263327092000     1.252077990000    12.000000000000
         C            4.379277830000    -1.495437151000     0.131897954000    12.000000000000
         H            3.074472678000     0.911531008000    -1.877984459000     1.007825032230
         H            2.045123853000    -0.109210074000     2.150661072000     1.007825032230
         H            4.785403999000    -0.877695764000    -1.885515790000     1.007825032230
         H            3.735685255000    -1.868633627000     2.140834051000     1.007825032230
         H            5.124532464000    -2.280642897000     0.134249249000     1.007825032230
         C           -0.488934144000     0.794268058000     1.086043372000    12.000000000000
         H           -1.059332758000     0.920687850000     2.015752748000     1.007825032230
         H           -0.118878006000    -0.235784661000     1.045887261000     1.007825032230
         C            0.659709772000     1.772217814000     1.075007525000    12.000000000000
         H            0.270336376000     2.776505316000     0.905791046000     1.007825032230
         H            1.166412478000     1.765118076000     2.044908563000     1.007825032230

  Running in c1 symmetry.

  Rotational constants: A =      0.03850  B =      0.00753  C =      0.00730 [cm^-1]
  Rotational constants: A =   1154.19574  B =    225.71881  C =    218.72831 [MHz]
  Nuclear repulsion =  999.036614127179291

  Charge       = 0
  Multiplicity = 1
  Electrons    = 114
  Nalpha       = 57
  Nbeta        = 57

  ==> Algorithm <==

  SCF Algorithm Type is DF.
  DIIS enabled.
  MOM disabled.
  Fractional occupation disabled.
  Guess Type is SAD.
  Energy threshold   = 1.00e-08
  Density threshold  = 1.00e-08
  Integral threshold = 1.00e-12

  ==> Primary Basis <==

  Basis Set: JUN-CC-PVDZ
    Blend: JUN-CC-PVDZ
    Number of shells: 170
    Number of basis functions: 358
    Number of Cartesian functions: 374
    Spherical Harmonics?: true
    Max angular momentum: 2

   => Loading Basis Set <=

    Name: (JUN-CC-PVDZ AUX)
    Role: JKFIT
    Keyword: DF_BASIS_SCF
    atoms 1, 13                     entry O          line   258 file C:\Users\Ivan\.conda\envs\psi4\lib\share\psi4\basis\jun-cc-pvdz-jkfit.gbs 
    atoms 2-7, 14-19, 25, 28        entry C          line   146 file C:\Users\Ivan\.conda\envs\psi4\lib\share\psi4\basis\jun-cc-pvdz-jkfit.gbs 
    atoms 8-12, 20-24, 26-27, 29-30 entry H          line    70 file C:\Users\Ivan\.conda\envs\psi4\lib\share\psi4\basis\jun-cc-pvdz-jkfit.gbs 

  ==> Integral Setup <==

  DFHelper Memory: AOs need 1.321 GiB; user supplied 8.789 GiB. Using in-core AOs.

  ==> MemDFJK: Density-Fitted J/K Matrices <==

    J tasked:                   Yes
    K tasked:                   Yes
    wK tasked:                   No
    OpenMP threads:               1
    Memory [MiB]:              9000
    Algorithm:                 Core
    Schwarz Cutoff:           1E-12
    Mask sparsity (%):      15.4193
    Fitting Condition:        1E-10

   => Auxiliary Basis Set <=

  Basis Set: (JUN-CC-PVDZ AUX)
    Blend: JUN-CC-PVDZ-JKFIT
    Number of shells: 558
    Number of basis functions: 1586
    Number of Cartesian functions: 1806
    Spherical Harmonics?: true
    Max angular momentum: 3

  Minimum eigenvalue in the overlap matrix is 7.0498819072E-06.
  Reciprocal condition number of the overlap matrix is 5.2664440247E-07.
    Using symmetric orthogonalization.

  ==> Pre-Iterations <==

  SCF Guess: Superposition of Atomic Densities via on-the-fly atomic UHF (no occupation information).

   -------------------------
    Irrep   Nso     Nmo    
   -------------------------
     A        358     358 
   -------------------------
    Total     358     358
   -------------------------

  ==> Iterations <==

                           Total Energy        Delta E     RMS |[F,P]|

   @DF-RHF iter SAD:  -687.63034460368499   -6.87630e+02   0.00000e+00 
   @DF-RHF iter   1:  -687.66382806368563   -3.34835e-02   2.22055e-03 DIIS/ADIIS
   @DF-RHF iter   2:  -688.00569520779936   -3.41867e-01   9.89162e-04 DIIS/ADIIS
   @DF-RHF iter   3:  -688.07069233840730   -6.49971e-02   1.93557e-04 DIIS/ADIIS
   @DF-RHF iter   4:  -688.07471170329450   -4.01936e-03   5.82440e-05 DIIS
   @DF-RHF iter   5:  -688.07497498711780   -2.63284e-04   1.55309e-05 DIIS
   @DF-RHF iter   6:  -688.07500338309308   -2.83960e-05   5.35041e-06 DIIS
   @DF-RHF iter   7:  -688.07500692317603   -3.54008e-06   1.79306e-06 DIIS
   @DF-RHF iter   8:  -688.07500751015641   -5.86980e-07   6.09026e-07 DIIS
   @DF-RHF iter   9:  -688.07500760897778   -9.88214e-08   2.55356e-07 DIIS
   @DF-RHF iter  10:  -688.07500762318705   -1.42093e-08   1.13433e-07 DIIS
   @DF-RHF iter  11:  -688.07500762875191   -5.56486e-09   5.06159e-08 DIIS
   @DF-RHF iter  12:  -688.07500762977998   -1.02807e-09   1.83436e-08 DIIS
   @DF-RHF iter  13:  -688.07500762987422   -9.42464e-11   5.07345e-09 DIIS
  Energy and wave function converged.


  ==> Post-Iterations <==

    Orbital Energies [Eh]
    ---------------------

    Doubly Occupied:                                                      

       1A    -20.593699     2A    -20.592402     3A    -11.307528  
       4A    -11.305953     5A    -11.301108     6A    -11.300041  
       7A    -11.247406     8A    -11.245471     9A    -11.244774  
      10A    -11.243639    11A    -11.239617    12A    -11.237423  
      13A    -11.232652    14A    -11.232567    15A    -11.232092  
      16A    -11.231461    17A     -1.434753    18A     -1.419244  
      19A     -1.158303    20A     -1.154643    21A     -1.063663  
      22A     -1.025378    23A     -1.023783    24A     -1.015527  
      25A     -0.986141    26A     -0.894682    27A     -0.840817  
      28A     -0.835348    29A     -0.821091    30A     -0.798177  
      31A     -0.741815    32A     -0.721501    33A     -0.695967  
      34A     -0.676505    35A     -0.672751    36A     -0.662444  
      37A     -0.646198    38A     -0.634344    39A     -0.619165  
      40A     -0.609596    41A     -0.592741    42A     -0.589341  
      43A     -0.580583    44A     -0.555085    45A     -0.529979  
      46A     -0.528530    47A     -0.520912    48A     -0.513675  
      49A     -0.511169    50A     -0.488270    51A     -0.480285  
      52A     -0.469386    53A     -0.466795    54A     -0.343948  
      55A     -0.342308    56A     -0.315759    57A     -0.312318  

    Virtual:                                                              

      58A      0.051323    59A      0.061269    60A      0.063796  
      61A      0.066724    62A      0.077403    63A      0.079154  
      64A      0.084670    65A      0.086173    66A      0.098059  
      67A      0.101607    68A      0.104266    69A      0.106985  
      70A      0.109700    71A      0.113257    72A      0.115366  
      73A      0.120425    74A      0.124314    75A      0.126707  
      76A      0.131878    77A      0.134210    78A      0.140090  
      79A      0.145114    80A      0.148899    81A      0.156917  
      82A      0.162535    83A      0.165226    84A      0.166736  
      85A      0.172143    86A      0.177067    87A      0.178483  
      88A      0.194227    89A      0.198180    90A      0.202438  
      91A      0.203084    92A      0.206796    93A      0.210840  
      94A      0.212535    95A      0.215003    96A      0.222340  
      97A      0.226357    98A      0.235334    99A      0.241569  
     100A      0.243784   101A      0.252485   102A      0.258059  
     103A      0.261214   104A      0.266206   105A      0.273372  
     106A      0.273701   107A      0.276287   108A      0.280579  
     109A      0.287616   110A      0.290659   111A      0.292835  
     112A      0.293974   113A      0.302242   114A      0.307495  
     115A      0.312082   116A      0.315564   117A      0.324842  
     118A      0.329646   119A      0.338826   120A      0.347181  
     121A      0.351716   122A      0.364579   123A      0.365887  
     124A      0.370900   125A      0.377850   126A      0.384302  
     127A      0.386515   128A      0.389979   129A      0.397025  
     130A      0.402346   131A      0.406474   132A      0.414522  
     133A      0.422718   134A      0.428130   135A      0.433966  
     136A      0.438929   137A      0.445618   138A      0.449488  
     139A      0.458107   140A      0.461791   141A      0.474435  
     142A      0.483865   143A      0.487233   144A      0.491967  
     145A      0.503032   146A      0.513286   147A      0.538877  
     148A      0.547199   149A      0.561129   150A      0.571977  
     151A      0.580029   152A      0.590582   153A      0.601208  
     154A      0.619411   155A      0.706176   156A      0.735592  
     157A      0.754777   158A      0.758143   159A      0.779344  
     160A      0.796682   161A      0.799443   162A      0.819719  
     163A      0.822572   164A      0.823834   165A      0.828440  
     166A      0.847045   167A      0.856155   168A      0.858856  
     169A      0.871735   170A      0.875361   171A      0.883325  
     172A      0.885606   173A      0.902344   174A      0.904736  
     175A      0.913778   176A      0.924251   177A      0.927830  
     178A      0.929204   179A      0.934623   180A      0.940649  
     181A      0.948856   182A      0.955422   183A      0.962036  
     184A      0.962255   185A      0.967334   186A      0.969310  
     187A      0.977380   188A      0.978015   189A      0.983749  
     190A      0.985594   191A      0.990677   192A      0.998505  
     193A      1.000031   194A      1.007750   195A      1.014609  
     196A      1.031025   197A      1.039820   198A      1.051408  
     199A      1.053893   200A      1.087459   201A      1.108195  
     202A      1.114673   203A      1.124377   204A      1.135517  
     205A      1.151738   206A      1.158599   207A      1.169034  
     208A      1.181398   209A      1.187563   210A      1.199648  
     211A      1.211278   212A      1.222488   213A      1.235577  
     214A      1.238739   215A      1.247321   216A      1.249003  
     217A      1.258281   218A      1.262201   219A      1.269427  
     220A      1.274287   221A      1.275736   222A      1.281599  
     223A      1.300543   224A      1.310695   225A      1.319135  
     226A      1.324282   227A      1.326069   228A      1.353978  
     229A      1.365745   230A      1.369659   231A      1.375716  
     232A      1.377554   233A      1.382033   234A      1.404955  
     235A      1.480312   236A      1.499255   237A      1.503047  
     238A      1.509618   239A      1.512519   240A      1.517893  
     241A      1.563673   242A      1.608762   243A      1.636354  
     244A      1.674634   245A      1.686671   246A      1.721391  
     247A      1.729211   248A      1.745007   249A      1.755247  
     250A      1.760663   251A      1.769496   252A      1.769991  
     253A      1.780462   254A      1.793485   255A      1.805216  
     256A      1.815955   257A      1.823622   258A      1.841695  
     259A      1.878974   260A      1.899360   261A      1.910061  
     262A      1.921891   263A      1.923097   264A      1.927035  
     265A      1.938194   266A      1.941108   267A      1.948395  
     268A      1.954679   269A      1.961281   270A      1.963046  
     271A      1.970046   272A      1.980510   273A      1.984117  
     274A      1.989786   275A      1.992786   276A      2.009595  
     277A      2.023433   278A      2.036033   279A      2.046361  
     280A      2.065868   281A      2.066444   282A      2.073279  
     283A      2.079137   284A      2.087411   285A      2.094817  
     286A      2.098998   287A      2.108521   288A      2.114981  
     289A      2.134921   290A      2.156381   291A      2.164060  
     292A      2.177926   293A      2.179408   294A      2.182522  
     295A      2.186027   296A      2.188926   297A      2.195666  
     298A      2.202143   299A      2.208564   300A      2.226598  
     301A      2.236722   302A      2.268346   303A      2.273499  
     304A      2.289212   305A      2.316891   306A      2.320785  
     307A      2.361631   308A      2.371715   309A      2.409606  
     310A      2.411511   311A      2.416998   312A      2.428364  
     313A      2.480267   314A      2.494113   315A      2.501448  
     316A      2.519262   317A      2.521302   318A      2.540869  
     319A      2.561246   320A      2.606067   321A      2.626171  
     322A      2.651695   323A      2.757660   324A      2.764254  
     325A      2.791471   326A      2.798578   327A      2.807434  
     328A      2.811513   329A      2.818454   330A      2.836871  
     331A      2.846692   332A      2.854670   333A      2.867081  
     334A      2.871011   335A      2.940657   336A      2.977668  
     337A      3.013969   338A      3.021633   339A      3.045085  
     340A      3.048856   341A      3.099884   342A      3.100958  
     343A      3.186701   344A      3.193277   345A      3.235709  
     346A      3.288939   347A      3.292236   348A      3.316895  
     349A      3.425291   350A      3.462840   351A      3.542963  
     352A      3.567207   353A      3.750884   354A      3.764869  
     355A      3.875282   356A      3.906102   357A      4.122816  
     358A      4.133653  

    Final Occupation by Irrep:
              A 
    DOCC [    57 ]
    NA   [    57 ]
    NB   [    57 ]

  @DF-RHF Final Energy:  -688.07500762987422

   => Energetics <=

    Nuclear Repulsion Energy =            999.0366141271792912
    One-Electron Energy =               -2918.0617361093623003
    Two-Electron Energy =                1230.9501143523086739
    Total Energy =                       -688.0750076298743352

Computation Completed


Properties will be evaluated at   0.000000,   0.000000,   0.000000 [a0]

Properties computed using the SCF density matrix


 Multipole Moments:

 ------------------------------------------------------------------------------------
     Multipole            Electronic (a.u.)      Nuclear  (a.u.)        Total (a.u.)
 ------------------------------------------------------------------------------------

 L = 1.  Multiply by 2.5417464519 to convert [e a0] to [Debye]
 Dipole X            :         -1.2494849            1.1801945           -0.0692905
 Dipole Y            :          3.3612556           -3.6834570           -0.3222014
 Dipole Z            :          1.9453211           -1.1471594            0.7981617
 Magnitude           :                                                    0.8635260

 ------------------------------------------------------------------------------------

*** tstop() called on DESKTOP-D4OA462 at Thu Nov  9 14:50:10 2023
Module time:
	user time   =        nan seconds =        nan minutes
	system time =        nan seconds =        nan minutes
	total time  =         40 seconds =       0.67 minutes
Total time:
	user time   =        nan seconds =        nan minutes
	system time =        nan seconds =        nan minutes
	total time  =         40 seconds =       0.67 minutes
  Constructing Basis Sets for FISAPT...

   => Loading Basis Set <=

    Name: (JUN-CC-PVDZ AUX)
    Role: JKFIT
    Keyword: DF_BASIS_SCF
    atoms 1, 13                     entry O          line   258 file C:\Users\Ivan\.conda\envs\psi4\lib\share\psi4\basis\jun-cc-pvdz-jkfit.gbs 
    atoms 2-7, 14-19, 25, 28        entry C          line   146 file C:\Users\Ivan\.conda\envs\psi4\lib\share\psi4\basis\jun-cc-pvdz-jkfit.gbs 
    atoms 8-12, 20-24, 26-27, 29-30 entry H          line    70 file C:\Users\Ivan\.conda\envs\psi4\lib\share\psi4\basis\jun-cc-pvdz-jkfit.gbs 

   => Loading Basis Set <=

    Name: (JUN-CC-PVDZ AUX)
    Role: RIFIT
    Keyword: DF_BASIS_SAPT
    atoms 1, 13                     entry O          line   188 file C:\Users\Ivan\.conda\envs\psi4\lib\share\psi4\basis\jun-cc-pvdz-ri.gbs 
    atoms 2-7, 14-19, 25, 28        entry C          line   100 file C:\Users\Ivan\.conda\envs\psi4\lib\share\psi4\basis\jun-cc-pvdz-ri.gbs 
    atoms 8-12, 20-24, 26-27, 29-30 entry H          line    30 file C:\Users\Ivan\.conda\envs\psi4\lib\share\psi4\basis\jun-cc-pvdz-ri.gbs 

   => Loading Basis Set <=

    Name: CC-PVTZ-MINAO
    Role: ORBITAL
    Keyword: BASIS
    atoms 1, 13                     entry O          line   179 file C:\Users\Ivan\.conda\envs\psi4\lib\share\psi4\basis\cc-pvtz-minao.gbs 
    atoms 2-7, 14-19, 25, 28        entry C          line   119 file C:\Users\Ivan\.conda\envs\psi4\lib\share\psi4\basis\cc-pvtz-minao.gbs 
    atoms 8-12, 20-24, 26-27, 29-30 entry H          line    20 file C:\Users\Ivan\.conda\envs\psi4\lib\share\psi4\basis\cc-pvtz-minao.gbs 

	 --------------------------------------------
	                    FISAPT0                  
	                  Rob Parrish                
	 --------------------------------------------

    Do F-SAPT =         Yes
    Do Plot   =         Yes
    Memory    =      10.547 [GiB]

  ==> Localization (IBO) <==

  ==> IBO Localizer 2 <==

    MinAO Basis = CC-PVTZ-MINAO
    Use Ghosts  =       FALSE
    Use Stars   =       FALSE
    Condition   =   1.000E-07
    Power       =           4
    Convergence =   1.000E-12
    Maxiter     =         200

    @IBO Iter:                   Metric       Gradient
    @IBO    1:   1.9173248548644695E+00   2.954132E+00
    @IBO    2:   2.1478489059396209E+00   1.346278E+00
    @IBO    3:   2.2023150425730433E+00   6.931518E-01
    @IBO    4:   2.2075412224313715E+00   8.314992E-02
    @IBO    5:   2.2075879590039209E+00   2.938186E-03
    @IBO    6:   2.2075880286400102E+00   1.578718E-04
    @IBO    7:   2.2075880293290742E+00   3.111419E-05
    @IBO    8:   2.2075880293572596E+00   6.290990E-06
    @IBO    9:   2.2075880293584293E+00   1.270183E-06
    @IBO   10:   2.2075880293584773E+00   2.560511E-07
    @IBO   11:   2.2075880293584791E+00   5.159588E-08
    @IBO   12:   2.2075880293584791E+00   1.040690E-08
    @IBO   13:   2.2075880293584791E+00   2.103349E-09
    @IBO   14:   2.2075880293584791E+00   4.262893E-10
    @IBO   15:   2.2075880293584791E+00   8.667643E-11
    @IBO   16:   2.2075880293584795E+00   1.768513E-11
    @IBO   17:   2.2075880293584795E+00   3.621277E-12
    @IBO   18:   2.2075880293584791E+00   7.441149E-13

    IBO Localizer 2 converged.

  ==> Partitioning <==

   => Atomic Partitioning <= 

    Monomer A:  12 atoms
    Monomer B:  12 atoms
    Monomer C:   6 atoms

   => Link Bond Identification <=

    Link Bond Selection = AUTOMATIC

    Charge Completeness = 0.800

    Total Link Bonds = 2

    --------------------------
    N     Orb Type Aind1 Aind2
    --------------------------
    1      44   BC    13    28
    2      48   AC     1    25
    --------------------------

   => Link Bond Assignment <=

    Link Bond Assignment      = C

   => Partition Summary <=

    Monomer A:  0 charge,  48 protons,  48 electrons,  24 docc
    Monomer B:  0 charge,  48 protons,  48 electrons,  24 docc
    Monomer C:  0 charge,  18 protons,  18 electrons,   9 docc

  ==> Overlap Integrals <==

  ==> Kinetic Integrals <==

  ==> Nuclear Integrals <==

    Nuclear Repulsion Tot:   9.9903661412717895E+02 [Eh]

  ==> Coulomb Integrals <==

  DFHelper Memory: AOs need 1.321 GiB; user supplied 10.544 GiB. Using in-core AOs.

  ==> MemDFJK: Density-Fitted J/K Matrices <==

    J tasked:                   Yes
    K tasked:                   Yes
    wK tasked:                   No
    OpenMP threads:               1
    Memory [MiB]:             10800
    Algorithm:                 Core
    Schwarz Cutoff:           1E-12
    Mask sparsity (%):      15.4193
    Fitting Condition:        1E-10

   => Auxiliary Basis Set <=

  Basis Set: (JUN-CC-PVDZ AUX)
    Blend: JUN-CC-PVDZ-JKFIT
    Number of shells: 558
    Number of basis functions: 1586
    Number of Cartesian functions: 1806
    Spherical Harmonics?: true
    Max angular momentum: 3

  ==> Relaxed SCF Equations <==

  ==> SCF A: <==

    Maxiter =         100
    E Tol   =   1.000E-08
    D Tol   =   1.000E-08

    Max DIIS Vectors = 10

    Iter   N:                        E          dE         |D|
    Iter   1:  -2.9737503190941783E+02  -2.974E+02   2.798E-04 
    Iter   2:  -2.9737678904398075E+02  -1.757E-03   1.607E-05 DIIS
    Iter   3:  -2.9737681204405953E+02  -2.300E-05   4.724E-06 DIIS
    Iter   4:  -2.9737681390691455E+02  -1.863E-06   2.006E-06 DIIS
    Iter   5:  -2.9737681428716644E+02  -3.803E-07   5.261E-07 DIIS
    Iter   6:  -2.9737681433789817E+02  -5.073E-08   2.810E-07 DIIS
    Iter   7:  -2.9737681435526451E+02  -1.737E-08   1.166E-07 DIIS
    Iter   8:  -2.9737681436008501E+02  -4.820E-09   4.840E-08 DIIS
    Iter   9:  -2.9737681436091708E+02  -8.321E-10   1.518E-08 DIIS
    Iter  10:  -2.9737681436098148E+02  -6.440E-11   3.549E-09 DIIS

    FISAPTSCF Converged.

    Final SCF Energy:  -2.9737681436098148E+02 [Eh]

   => Occupied Orbital Energies <=

       1  -20.588165     2  -11.302565     3  -11.243422  
       4  -11.241925     5  -11.234301     6  -11.229908  
       7  -11.229299     8   -1.233356     9   -1.128013  
      10   -1.020695    11   -0.969854    12   -0.833094  
      13   -0.791208    14   -0.690444    15   -0.652494  
      16   -0.617525    17   -0.589380    18   -0.587308  
      19   -0.577776    20   -0.515422    21   -0.492742  
      22   -0.481183    23   -0.340597    24   -0.312040  

   => Virtual Orbital Energies <=

      25    0.032100    26    0.051083    27    0.056939  
      28    0.061474    29    0.071796    30    0.075131  
      31    0.078311    32    0.084900    33    0.089354  
      34    0.098331    35    0.101652    36    0.103349  
      37    0.107607    38    0.111277    39    0.116638  
      40    0.118781    41    0.128230    42    0.130276  
      43    0.131030    44    0.135763    45    0.140378  
      46    0.144594    47    0.152090    48    0.154640  
      49    0.162151    50    0.164285    51    0.166125  
      52    0.175431    53    0.175547    54    0.179022  
      55    0.181921    56    0.185514    57    0.191136  
      58    0.196237    59    0.201768    60    0.206370  
      61    0.208960    62    0.214499    63    0.216960  
      64    0.227662    65    0.228441    66    0.233673  
      67    0.241777    68    0.245898    69    0.249508  
      70    0.253072    71    0.258664    72    0.262763  
      73    0.269156    74    0.271007    75    0.275671  
      76    0.285230    77    0.288312    78    0.292799  
      79    0.293596    80    0.296598    81    0.307581  
      82    0.314983    83    0.323300    84    0.325871  
      85    0.337060    86    0.352057    87    0.361623  
      88    0.377201    89    0.381808    90    0.385111  
      91    0.387398    92    0.390706    93    0.396382  
      94    0.402983    95    0.408639    96    0.422304  
      97    0.434986    98    0.436453    99    0.439204  
     100    0.446851   101    0.451710   102    0.455702  
     103    0.460052   104    0.461416   105    0.467720  
     106    0.474348   107    0.483166   108    0.493872  
     109    0.497580   110    0.505477   111    0.508998  
     112    0.514844   113    0.534581   114    0.539973  
     115    0.546329   116    0.557262   117    0.575068  
     118    0.579070   119    0.598425   120    0.607179  
     121    0.619010   122    0.634436   123    0.648789  
     124    0.655827   125    0.663053   126    0.699403  
     127    0.736680   128    0.742693   129    0.752633  
     130    0.758442   131    0.770502   132    0.790105  
     133    0.793933   134    0.797963   135    0.825091  
     136    0.828147   137    0.837867   138    0.856859  
     139    0.872539   140    0.880637   141    0.892665  
     142    0.905161   143    0.912762   144    0.924176  
     145    0.928464   146    0.941771   147    0.947951  
     148    0.956855   149    0.962188   150    0.967931  
     151    0.973365   152    0.976916   153    0.983215  
     154    0.984927   155    0.994062   156    1.002150  
     157    1.007954   158    1.025553   159    1.033698  
     160    1.047786   161    1.057811   162    1.077361  
     163    1.097698   164    1.121153   165    1.129591  
     166    1.148510   167    1.155425   168    1.173648  
     169    1.195865   170    1.217367   171    1.220841  
     172    1.235230   173    1.242648   174    1.248879  
     175    1.249751   176    1.267728   177    1.275705  
     178    1.282799   179    1.318028   180    1.325281  
     181    1.334849   182    1.354755   183    1.371389  
     184    1.376688   185    1.390446   186    1.502013  
     187    1.508745   188    1.521259   189    1.544135  
     190    1.606600   191    1.607693   192    1.642396  
     193    1.658037   194    1.665849   195    1.692360  
     196    1.697601   197    1.746381   198    1.749249  
     199    1.752576   200    1.758928   201    1.771317  
     202    1.781400   203    1.787491   204    1.789450  
     205    1.803025   206    1.808073   207    1.812370  
     208    1.835442   209    1.854545   210    1.866419  
     211    1.889488   212    1.892857   213    1.903303  
     214    1.916159   215    1.918306   216    1.925186  
     217    1.929150   218    1.948258   219    1.953236  
     220    1.961302   221    1.974202   222    1.979446  
     223    1.984601   224    1.995678   225    2.001279  
     226    2.015576   227    2.028025   228    2.034792  
     229    2.044546   230    2.047692   231    2.052912  
     232    2.073833   233    2.076169   234    2.094787  
     235    2.101717   236    2.103762   237    2.105184  
     238    2.135298   239    2.142219   240    2.145519  
     241    2.156456   242    2.166174   243    2.178196  
     244    2.180016   245    2.189706   246    2.195799  
     247    2.199795   248    2.207443   249    2.210505  
     250    2.225146   251    2.230082   252    2.241730  
     253    2.262143   254    2.274937   255    2.282381  
     256    2.302205   257    2.311477   258    2.326154  
     259    2.335661   260    2.338055   261    2.357241  
     262    2.388542   263    2.407746   264    2.417594  
     265    2.432392   266    2.435112   267    2.449911  
     268    2.466169   269    2.480164   270    2.493938  
     271    2.503340   272    2.523600   273    2.531564  
     274    2.541736   275    2.559198   276    2.580557  
     277    2.597161   278    2.630743   279    2.646445  
     280    2.658929   281    2.698247   282    2.702187  
     283    2.763464   284    2.772742   285    2.790275  
     286    2.806241   287    2.812593   288    2.821219  
     289    2.828719   290    2.847954   291    2.862294  
     292    2.867251   293    2.896629   294    2.922117  
     295    2.932175   296    2.972523   297    3.023269  
     298    3.038168   299    3.049146   300    3.055981  
     301    3.097661   302    3.102648   303    3.118569  
     304    3.140162   305    3.140408   306    3.195488  
     307    3.205148   308    3.251496   309    3.270456  
     310    3.293946   311    3.304809   312    3.407409  
     313    3.444815   314    3.467386   315    3.558173  
     316    3.572594   317    3.576732   318    3.648636  
     319    3.703913   320    3.768668   321    3.866578  
     322    3.892774   323    4.130875   324    4.151220  
     325    4.282862   326    4.305161   327    4.342831  
     328    4.350876   329    4.443819   330    4.543578  
     331    4.569674   332    4.765051   333    4.937423  
     334    5.068888   335    5.120633   336    5.391063  
     337    5.410395   338    5.472661   339    5.481089  
     340    5.564228   341    5.699999   342    6.034207  
     343   17.975846   344   18.126427   345   18.139478  
     346   18.584903   347   18.613096   348   19.261852  
     349   26.471415  

  ==> SCF B: <==

    Maxiter =         100
    E Tol   =   1.000E-08
    D Tol   =   1.000E-08

    Max DIIS Vectors = 10

    Iter   N:                        E          dE         |D|
    Iter   1:  -2.9738188419667352E+02  -2.974E+02   2.800E-04 
    Iter   2:  -2.9738365482005196E+02  -1.771E-03   1.842E-05 DIIS
    Iter   3:  -2.9738368338744385E+02  -2.857E-05   7.784E-06 DIIS
    Iter   4:  -2.9738368798756801E+02  -4.600E-06   2.712E-06 DIIS
    Iter   5:  -2.9738368871702437E+02  -7.295E-07   5.578E-07 DIIS
    Iter   6:  -2.9738368876853707E+02  -5.151E-08   2.385E-07 DIIS
    Iter   7:  -2.9738368877896539E+02  -1.043E-08   8.729E-08 DIIS
    Iter   8:  -2.9738368878145104E+02  -2.486E-09   3.696E-08 DIIS
    Iter   9:  -2.9738368878202493E+02  -5.739E-10   1.640E-08 DIIS
    Iter  10:  -2.9738368878212509E+02  -1.002E-10   6.072E-09 DIIS

    FISAPTSCF Converged.

    Final SCF Energy:  -2.9738368878212509E+02 [Eh]

   => Occupied Orbital Energies <=

       1  -20.587804     2  -11.303228     3  -11.243379  
       4  -11.241585     5  -11.234402     6  -11.229323  
       7  -11.228976     8   -1.230600     9   -1.127034  
      10   -1.020341    11   -0.968863    12   -0.832477  
      13   -0.790978    14   -0.689693    15   -0.652522  
      16   -0.617236    17   -0.589986    18   -0.586914  
      19   -0.575776    20   -0.515534    21   -0.492414  
      22   -0.481175    23   -0.340505    24   -0.312078  

   => Virtual Orbital Energies <=

      25    0.032776    26    0.051840    27    0.055946  
      28    0.064369    29    0.068910    30    0.073243  
      31    0.079872    32    0.084570    33    0.090604  
      34    0.095750    35    0.103593    36    0.104242  
      37    0.108903    38    0.111137    39    0.113706  
      40    0.119577    41    0.125208    42    0.128234  
      43    0.133471    44    0.139029    45    0.143320  
      46    0.147899    47    0.151174    48    0.156695  
      49    0.160572    50    0.161870    51    0.167012  
      52    0.173855    53    0.176727    54    0.179453  
      55    0.181769    56    0.188897    57    0.190854  
      58    0.196469    59    0.202164    60    0.206601  
      61    0.209482    62    0.212433    63    0.220342  
      64    0.222148    65    0.226504    66    0.232360  
      67    0.239012    68    0.242005    69    0.246546  
      70    0.252404    71    0.260823    72    0.268735  
      73    0.271808    74    0.274720    75    0.279420  
      76    0.282253    77    0.290130    78    0.294625  
      79    0.297184    80    0.302408    81    0.305800  
      82    0.309305    83    0.325108    84    0.330870  
      85    0.339783    86    0.355426    87    0.365020  
      88    0.366627    89    0.373660    90    0.380587  
      91    0.384698    92    0.394546    93    0.395931  
      94    0.400854    95    0.413396    96    0.420847  
      97    0.433745    98    0.437563    99    0.439707  
     100    0.442443   101    0.450692   102    0.456211  
     103    0.457562   104    0.465119   105    0.468223  
     106    0.475687   107    0.480141   108    0.485690  
     109    0.492879   110    0.504027   111    0.507659  
     112    0.519191   113    0.528982   114    0.545344  
     115    0.552248   116    0.564269   117    0.574816  
     118    0.589963   119    0.598431   120    0.610866  
     121    0.619165   122    0.638400   123    0.647297  
     124    0.654561   125    0.671922   126    0.697637  
     127    0.725708   128    0.743980   129    0.745097  
     130    0.757930   131    0.769799   132    0.795907  
     133    0.800445   134    0.811684   135    0.824164  
     136    0.835715   137    0.836261   138    0.863889  
     139    0.865630   140    0.878421   141    0.896826  
     142    0.901679   143    0.906445   144    0.920130  
     145    0.926861   146    0.931681   147    0.943086  
     148    0.952987   149    0.961696   150    0.968713  
     151    0.976391   152    0.981973   153    0.982905  
     154    0.985577   155    0.990133   156    0.995088  
     157    1.010292   158    1.025489   159    1.034507  
     160    1.047627   161    1.060426   162    1.072421  
     163    1.101760   164    1.115575   165    1.127701  
     166    1.141050   167    1.166474   168    1.174729  
     169    1.184108   170    1.205370   171    1.229654  
     172    1.238662   173    1.242558   174    1.251221  
     175    1.261982   176    1.272920   177    1.283729  
     178    1.291386   179    1.310863   180    1.328140  
     181    1.333200   182    1.366058   183    1.374127  
     184    1.383154   185    1.398782   186    1.445301  
     187    1.512224   188    1.514224   189    1.531661  
     190    1.557649   191    1.647380   192    1.656107  
     193    1.675260   194    1.685071   195    1.696890  
     196    1.706169   197    1.725685   198    1.749729  
     199    1.757924   200    1.764652   201    1.769865  
     202    1.773964   203    1.785048   204    1.798671  
     205    1.803684   206    1.810081   207    1.818257  
     208    1.826596   209    1.854294   210    1.863547  
     211    1.891725   212    1.903002   213    1.916189  
     214    1.925240   215    1.935907   216    1.941299  
     217    1.946323   218    1.951312   219    1.957727  
     220    1.963996   221    1.977658   222    1.986872  
     223    1.990907   224    1.993384   225    1.998212  
     226    2.011575   227    2.023474   228    2.027654  
     229    2.037600   230    2.048199   231    2.058645  
     232    2.067166   233    2.077292   234    2.089064  
     235    2.092266   236    2.099478   237    2.113209  
     238    2.132153   239    2.139122   240    2.145289  
     241    2.150763   242    2.161938   243    2.183352  
     244    2.185523   245    2.189564   246    2.199636  
     247    2.202151   248    2.205372   249    2.209981  
     250    2.217133   251    2.225177   252    2.234806  
     253    2.257928   254    2.273022   255    2.280234  
     256    2.288759   257    2.306967   258    2.323721  
     259    2.332490   260    2.348629   261    2.378831  
     262    2.404075   263    2.415755   264    2.422371  
     265    2.428077   266    2.439307   267    2.447181  
     268    2.468102   269    2.490727   270    2.493500  
     271    2.516702   272    2.522145   273    2.525300  
     274    2.541366   275    2.550453   276    2.570257  
     277    2.591373   278    2.607178   279    2.654142  
     280    2.662030   281    2.695494   282    2.705918  
     283    2.757371   284    2.773900   285    2.789040  
     286    2.799942   287    2.812596   288    2.821739  
     289    2.828926   290    2.844567   291    2.854548  
     292    2.867437   293    2.893145   294    2.913626  
     295    2.937400   296    2.957028   297    3.018134  
     298    3.029173   299    3.049055   300    3.057584  
     301    3.103962   302    3.111665   303    3.120355  
     304    3.131683   305    3.138028   306    3.191965  
     307    3.215618   308    3.251979   309    3.264695  
     310    3.294560   311    3.300316   312    3.411059  
     313    3.464138   314    3.473350   315    3.540576  
     316    3.560968   317    3.583484   318    3.653828  
     319    3.703543   320    3.756743   321    3.867526  
     322    3.900078   323    4.126915   324    4.149094  
     325    4.283990   326    4.307562   327    4.350536  
     328    4.352397   329    4.450715   330    4.523704  
     331    4.597028   332    4.769270   333    4.928488  
     334    5.062200   335    5.107021   336    5.405789  
     337    5.413834   338    5.477816   339    5.505612  
     340    5.574124   341    5.703772   342    6.044973  
     343   17.979132   344   18.128890   345   18.143569  
     346   18.591212   347   18.620220   348   19.268229  
     349   26.482213  

  ==> Frozen Core <==


    ------------------
    Range      A     B
    ------------------
    nbf      358   358
    nmo      349   349
    nocc      24    24
    nvir     325   325
    nfocc      7     7
    naocc     17    17
    navir    325   325
    nfvir      0     0
    ------------------

  ==> Unification <==

  ==> dHF <==

    E ABC(HF) =  -6.8807500762987422E+02 [Eh]
    E AC(0)   =  -3.8089436856666930E+02 [Eh]
    E BC(0)   =  -3.8090733179016729E+02 [Eh]
    E A(0)    =  -2.8268203353917988E+02 [Eh]
    E B(0)    =  -2.8266714386614996E+02 [Eh]
    E AC(HF)  =  -3.8089258611510559E+02 [Eh]
    E BC(HF)  =  -3.8090552720471590E+02 [Eh]
    E AB(HF)  =  -5.6532840155848089E+02 [Eh]
    E A(HF)   =  -2.8267330634613086E+02 [Eh]
    E B(HF)   =  -2.8265763304089836E+02 [Eh]
    E C       =  -7.3720567861393633E+01 [Eh]
    E HF      =   6.1248655687364817E-03 [Eh]

  ==> Electrostatics <==

    Elst10,r            =     0.006285933835 [Eh]

  ==> Exchange <==

    Exch10(S^2)         =     0.000529770973 [Eh]
    Exch10              =     0.000529879514 [Eh]

  ==> Induction <==

    Ind20,u (A<-B)      =    -0.000287722833 [Eh]
    Ind20,u (B<-A)      =    -0.000373208910 [Eh]
    Ind20,u             =    -0.000660931744 [Eh]
    Exch-Ind20,u (A<-B) =     0.000051793869 [Eh]
    Exch-Ind20,u (B<-A) =     0.000069059299 [Eh]
    Exch-Ind20,u        =     0.000120853168 [Eh]

  ==> CPHF Iterations <==

    Maxiter     =         100
    Convergence =   1.000E-08

    -----------------------------------------
    Iter   Monomer A    Monomer B    Time [s]
    -----------------------------------------
    1      2.074E-01    2.069E-01           2
    2      6.629E-02    7.315E-02           4
    3      2.116E-02    1.817E-02           5
    4      1.074E-02    7.561E-03           7
    5      4.584E-03    3.017E-03           9
    6      1.941E-03    1.368E-03          11
    7      6.013E-04    4.792E-04          13
    8      1.696E-04    1.812E-04          15
    9      4.771E-05    5.555E-05          17
    10     1.591E-05    1.755E-05          19
    11     3.064E-06    4.933E-06          21
    12     1.028E-06    2.712E-06          23
    13     3.741E-07    9.271E-07          25
    14     1.601E-07    2.906E-07          26
    15     6.124E-08    8.089E-08          28
    16     2.203E-08    2.786E-08          30
    17     5.490E-09*   6.286E-09*         32
    -----------------------------------------

    Ind20,r (A<-B)      =    -0.000327717633 [Eh]
    Ind20,r (B<-A)      =    -0.000417071841 [Eh]
    Ind20,r             =    -0.000744789474 [Eh]
    Exch-Ind20,r (A<-B) =     0.000061393992 [Eh]
    Exch-Ind20,r (B<-A) =     0.000079002347 [Eh]
    Exch-Ind20,r        =     0.000140396339 [Eh]

  ==> F-SAPT Localization (IBO) <==

  Local Orbitals for Monomer A:

  ==> IBO Localizer 2 <==

    MinAO Basis = CC-PVTZ-MINAO
    Use Ghosts  =       FALSE
    Use Stars   =       FALSE
    Condition   =   1.000E-07
    Power       =           4
    Convergence =   1.000E-12
    Maxiter     =        1000

    @IBO Iter:                   Metric       Gradient
    @IBO    1:   1.6249711952374364E+00   1.335004E+00
    @IBO    2:   1.7441276117564009E+00   7.726732E-01
    @IBO    3:   1.7906329344833800E+00   3.871041E-01
    @IBO    4:   1.7944969021724679E+00   6.725774E-02
    @IBO    5:   1.7945474517296403E+00   6.319362E-04
    @IBO    6:   1.7945474594073973E+00   2.891407E-05
    @IBO    7:   1.7945474594872188E+00   5.111053E-06
    @IBO    8:   1.7945474594901427E+00   1.096888E-06
    @IBO    9:   1.7945474594902691E+00   2.522810E-07
    @IBO   10:   1.7945474594902751E+00   5.882970E-08
    @IBO   11:   1.7945474594902757E+00   1.357662E-08
    @IBO   12:   1.7945474594902753E+00   3.081578E-09
    @IBO   13:   1.7945474594902755E+00   6.881053E-10
    @IBO   14:   1.7945474594902755E+00   1.514660E-10
    @IBO   15:   1.7945474594902753E+00   3.293868E-11
    @IBO   16:   1.7945474594902753E+00   7.090203E-12
    @IBO   17:   1.7945474594902753E+00   1.513067E-12
    @IBO   18:   1.7945474594902753E+00   3.205426E-13

    IBO Localizer 2 converged.

  Local Orbitals for Monomer B:

  ==> IBO Localizer 2 <==

    MinAO Basis = CC-PVTZ-MINAO
    Use Ghosts  =       FALSE
    Use Stars   =       FALSE
    Condition   =   1.000E-07
    Power       =           4
    Convergence =   1.000E-12
    Maxiter     =        1000

    @IBO Iter:                   Metric       Gradient
    @IBO    1:   1.6158102598736075E+00   1.441037E+00
    @IBO    2:   1.7394299636959967E+00   8.049681E-01
    @IBO    3:   1.7893834208340145E+00   4.997284E-01
    @IBO    4:   1.7945958259175878E+00   1.076027E-01
    @IBO    5:   1.7947166572851816E+00   6.271034E-04
    @IBO    6:   1.7947166685576437E+00   7.408250E-05
    @IBO    7:   1.7947166688800791E+00   1.490652E-05
    @IBO    8:   1.7947166688934679E+00   3.020456E-06
    @IBO    9:   1.7947166688940215E+00   6.093061E-07
    @IBO   10:   1.7947166688940441E+00   1.225564E-07
    @IBO   11:   1.7947166688940452E+00   2.471531E-08
    @IBO   12:   1.7947166688940455E+00   5.020925E-09
    @IBO   13:   1.7947166688940455E+00   1.031132E-09
    @IBO   14:   1.7947166688940455E+00   2.144793E-10
    @IBO   15:   1.7947166688940455E+00   4.519728E-11
    @IBO   16:   1.7947166688940455E+00   9.638710E-12
    @IBO   17:   1.7947166688940455E+00   2.076145E-12
    @IBO   18:   1.7947166688940455E+00   4.506326E-13

    IBO Localizer 2 converged.

  ==> F-SAPT Electrostatics <==

  DFHelper Memory: AOs need 1.554 GiB; user supplied 10.547 GiB. Using in-core AOs.

  ==> DFHelper <==
    NBF:                             358
    NAux:                           1586
    Schwarz Cutoff:                1E-12
    Mask sparsity (%):                15
    DFH Avail. Memory [GiB]:      10.547
    OpenMP threads:                    1
    Algorithm:                DIRECT_iaQ
    AO Core:                        True
    MO Core:                       False
    Hold Metric:                   False
    Metric Power:                 -0.500
    Fitting Condition:             1E-12
    Q Shell Max:                       7


    Elst10,r            =     0.006285933810 [Eh]

  ==> F-SAPT Exchange <==

    Exch10(S^2)         =     0.000529770973 [Eh]

    Scaling F-SAPT Exch10(S^2) by   1.000E+00 to match Exch10

  ==> F-SAPT Induction <==

    Ind20,u (A<-B)      =    -0.000287722833 [Eh]
    Ind20,u (B<-A)      =    -0.000373208910 [Eh]
    Ind20,u             =    -0.000660931744 [Eh]
    Exch-Ind20,u (A<-B) =     0.000051793869 [Eh]
    Exch-Ind20,u (B<-A) =     0.000069059299 [Eh]
    Exch-Ind20,u        =     0.000120853168 [Eh]

    Scaling for delta HF        =   1.143E+00
    Scaling for response (A<-B) =   1.129E+00
    Scaling for response (B<-A) =   1.112E+00
    Scaling for total (A<-B)    =   1.290E+00
    Scaling for total (B<-A)    =   1.271E+00

  ==> F-SAPT Dispersion <==

  DFHelper Memory: AOs need 1.213 GiB; user supplied 10.541 GiB. Using in-core AOs.

  ==> DFHelper <==
    NBF:                             358
    NAux:                           1236
    Schwarz Cutoff:                1E-12
    Mask sparsity (%):                15
    DFH Avail. Memory [GiB]:      10.541
    OpenMP threads:                    1
    Algorithm:                DIRECT_iaQ
    AO Core:                        True
    MO Core:                       False
    Hold Metric:                   False
    Metric Power:                 -0.500
    Fitting Condition:             1E-12
    Q Shell Max:                       7


    1415577600 doubles - 1587685 overhead leaves 1413989915 for dispersion
    Processing a single (r,s) pair requires 168096 doubles
    325 values of r processed in 1 blocks of 325
    325 values of s processed in 1 blocks of 325

    Disp20              =    -0.001733899562 [Eh]
    Exch-Disp20         =     0.000046934214 [Eh]

  ==> F-SAPT Output <==

    F-SAPT Data Filepath = fsapt/

  ==> Scalar Field Plots <==

    F-SAPT Plot Filepath = plot/

  ==> CubicScalarGrid <==

    Filepath     = plot/
    Total Points =          1111860
    XYZ Blocking =               10
    X Points     =              142
    Y Points     =               90
    Z Points     =               87
    X Spacing    =        2.000E-01
    Y Spacing    =        2.000E-01
    Z Spacing    =        2.000E-01
    X Minimum    =       -1.442E+01
    Y Minimum    =       -8.524E+00
    Z Minimum    =       -9.039E+00
    X Maximum    =        1.378E+01
    Y Maximum    =        9.276E+00
    Z Maximum    =        8.161E+00

  Basis Set: JUN-CC-PVDZ
    Blend: JUN-CC-PVDZ
    Number of shells: 170
    Number of basis functions: 358
    Number of Cartesian functions: 374
    Spherical Harmonics?: true
    Max angular momentum: 2

*********************************************************************************************************************
When computing potential integrals with different bra and ket basis, the atom definition is taken from the bra basis.
*********************************************************************************************************************
*********************************************************************************************************************
When computing potential integrals with different bra and ket basis, the atom definition is taken from the bra basis.
*********************************************************************************************************************
*********************************************************************************************************************
When computing potential integrals with different bra and ket basis, the atom definition is taken from the bra basis.
*********************************************************************************************************************
  ==> Results <==


    SAPT Results  
  --------------------------------------------------------------------------------------------------------
    Electrostatics                  6.28593383 [mEh]       3.94448303 [kcal/mol]      16.50371701 [kJ/mol]
      Elst10,r                      6.28593383 [mEh]       3.94448303 [kcal/mol]      16.50371701 [kJ/mol]

    Exchange                        0.52987951 [mEh]       0.33250441 [kcal/mol]       1.39119847 [kJ/mol]
      Exch10                        0.52987951 [mEh]       0.33250441 [kcal/mol]       1.39119847 [kJ/mol]
      Exch10(S^2)                   0.52977097 [mEh]       0.33243630 [kcal/mol]       1.39091350 [kJ/mol]

    Induction                      -0.69094778 [mEh]      -0.43357628 [kcal/mol]      -1.81408315 [kJ/mol]
      Ind20,r                      -0.74478947 [mEh]      -0.46736245 [kcal/mol]      -1.95544449 [kJ/mol]
      Exch-Ind20,r                  0.14039634 [mEh]       0.08810003 [kcal/mol]       0.36861054 [kJ/mol]
      delta HF,r (2)               -0.08655464 [mEh]      -0.05431386 [kcal/mol]      -0.22724919 [kJ/mol]
      Induction (A<-B)             -0.30446363 [mEh]      -0.19105381 [kcal/mol]      -0.79936915 [kJ/mol]
      Induction (B<-A)             -0.38648415 [mEh]      -0.24252247 [kcal/mol]      -1.01471399 [kJ/mol]

    Dispersion                     -1.68696535 [mEh]      -1.05858674 [kcal/mol]      -4.42912691 [kJ/mol]
      Disp20                       -1.73389956 [mEh]      -1.08803840 [kcal/mol]      -4.55235267 [kJ/mol]
      Exch-Disp20                   0.04693421 [mEh]       0.02945166 [kcal/mol]       0.12322576 [kJ/mol]

  Total HF                          6.12486557 [mEh]       3.84341117 [kcal/mol]      16.08083234 [kJ/mol]
  Total SAPT0                       4.43790022 [mEh]       2.78482443 [kcal/mol]      11.65170542 [kJ/mol]

  --------------------------------------------------------------------------------------------------------
    Han Solo: This is *not* gonna work.
    Luke Skywalker: Why didn't you say so before?
    Han Solo: I *did* say so before.

    Psi4 stopped on: Thursday, 09 November 2023 03:02PM
    Psi4 wall time for execution: 0:12:50.71

*** Psi4 exiting successfully. Buy a developer a beer!
