 Entering Gaussian System, Link 0=/home/madghost/g09/g09
 Input=118.gjf
 Output=118.log
 Initial command:
 /home/madghost/g09/l1.exe "/scr/natalya/118/Gau-2889752.inp" -scrdir="/scr/natalya/118/"
 Entering Link 1 = /home/madghost/g09/l1.exe PID=   2889754.
  
 Copyright (c) 1988,1990,1992,1993,1995,1998,2003,2009,2013,
            Gaussian, Inc.  All Rights Reserved.
  
 This is part of the Gaussian(R) 09 program.  It is based on
 the Gaussian(R) 03 system (copyright 2003, Gaussian, Inc.),
 the Gaussian(R) 98 system (copyright 1998, Gaussian, Inc.),
 the Gaussian(R) 94 system (copyright 1995, Gaussian, Inc.),
 the Gaussian 92(TM) system (copyright 1992, Gaussian, Inc.),
 the Gaussian 90(TM) system (copyright 1990, Gaussian, Inc.),
 the Gaussian 88(TM) system (copyright 1988, Gaussian, Inc.),
 the Gaussian 86(TM) system (copyright 1986, Carnegie Mellon
 University), and the Gaussian 82(TM) system (copyright 1983,
 Carnegie Mellon University). Gaussian is a federally registered
 trademark of Gaussian, Inc.
  
 This software contains proprietary and confidential information,
 including trade secrets, belonging to Gaussian, Inc.
  
 This software is provided under written license and may be
 used, copied, transmitted, or stored only in accord with that
 written license.
  
 The following legend is applicable only to US Government
 contracts under FAR:
  
                    RESTRICTED RIGHTS LEGEND
  
 Use, reproduction and disclosure by the US Government is
 subject to restrictions as set forth in subparagraphs (a)
 and (c) of the Commercial Computer Software - Restricted
 Rights clause in FAR 52.227-19.
  
 Gaussian, Inc.
 340 Quinnipiac St., Bldg. 40, Wallingford CT 06492
  
  
 ---------------------------------------------------------------
 Warning -- This program may not be used in any manner that
 competes with the business of Gaussian, Inc. or will provide
 assistance to any competitor of Gaussian, Inc.  The licensee
 of this program is prohibited from giving any competitor of
 Gaussian, Inc. access to this program.  By using this program,
 the user acknowledges that Gaussian, Inc. is engaged in the
 business of creating and licensing software in the field of
 computational chemistry and represents and warrants to the
 licensee that it is not a competitor of Gaussian, Inc. and that
 it will not use this program in any manner prohibited above.
 ---------------------------------------------------------------
  

 Cite this work as:
 Gaussian 09, Revision D.01,
 M. J. Frisch, G. W. Trucks, H. B. Schlegel, G. E. Scuseria, 
 M. A. Robb, J. R. Cheeseman, G. Scalmani, V. Barone, B. Mennucci, 
 G. A. Petersson, H. Nakatsuji, M. Caricato, X. Li, H. P. Hratchian, 
 A. F. Izmaylov, J. Bloino, G. Zheng, J. L. Sonnenberg, M. Hada, 
 M. Ehara, K. Toyota, R. Fukuda, J. Hasegawa, M. Ishida, T. Nakajima, 
 Y. Honda, O. Kitao, H. Nakai, T. Vreven, J. A. Montgomery, Jr., 
 J. E. Peralta, F. Ogliaro, M. Bearpark, J. J. Heyd, E. Brothers, 
 K. N. Kudin, V. N. Staroverov, T. Keith, R. Kobayashi, J. Normand, 
 K. Raghavachari, A. Rendell, J. C. Burant, S. S. Iyengar, J. Tomasi, 
 M. Cossi, N. Rega, J. M. Millam, M. Klene, J. E. Knox, J. B. Cross, 
 V. Bakken, C. Adamo, J. Jaramillo, R. Gomperts, R. E. Stratmann, 
 O. Yazyev, A. J. Austin, R. Cammi, C. Pomelli, J. W. Ochterski, 
 R. L. Martin, K. Morokuma, V. G. Zakrzewski, G. A. Voth, 
 P. Salvador, J. J. Dannenberg, S. Dapprich, A. D. Daniels, 
 O. Farkas, J. B. Foresman, J. V. Ortiz, J. Cioslowski, 
 and D. J. Fox, Gaussian, Inc., Wallingford CT, 2013.
 
 ******************************************
 Gaussian 09:  EM64L-G09RevD.01 24-Apr-2013
                 2-Jul-2024 
 ******************************************
 %chk=118.chk
 %nproc=32
 Will use up to   32 processors via shared memory.
 %mem=64000mb
 ----------------------------------------------------------------------
 #P PBE1PBE/Def2TZVP freq integral(UltraFineGrid) empiricaldispersion=g
 d3bj freq=cubic symmetry=follow
 ----------------------------------------------------------------------
 1/10=4,30=1,38=21/1,6,3;
 2/12=2,17=6,18=5,40=1/2;
 3/5=44,7=101,11=2,16=1,25=1,30=1,71=2,74=-13,75=-5,124=41,140=1/1,2,3;
 4/69=2/1;
 5/5=2,38=5,98=1/2;
 8/6=4,10=90,11=11/1;
 11/6=1,8=1,9=11,15=111,16=1/1,2,10;
 10/6=1/2;
 6/7=2,8=2,9=2,10=2,28=1/1;
 7/10=1,25=1/1,2,3,16;
 1/38=20/6(3);
 7/8=1,25=2,44=-1/16;
 1/10=4,30=1,38=20/3;
 99//99;
 3/5=44,7=101,11=2,16=1,25=1,30=1,71=2,74=-13,75=-5,124=41,140=1/1,2,3;
 4/5=5,16=3,69=2/1;
 5/5=2,38=5,98=1/2;
 8/6=4,10=90,11=11/1;
 11/6=1,8=1,9=11,15=111,16=1/1,2,10;
 10/6=1/2;
 6/7=2,8=2,9=2,10=2,28=1/1;
 7/7=1,10=1,25=1/1,2,3,16;
 1/38=20/6(-8);
 7/8=1,25=2,44=-1/16;
 1/10=4,30=1,38=20/3;
 99//99;
 Leave Link    1 at Tue Jul  2 14:49:23 2024, MaxMem=  8388608000 cpu:         3.2
 (Enter /home/madghost/g09/l101.exe)
 ---
 H12
 ---
 Symbolic Z-matrix:
 Charge =  0 Multiplicity = 1
 6                     0.18762   0.72687  -1.29446 
 1                    -0.13011   1.17826  -2.24342 
 1                     1.27617   0.82687  -1.20768 
 6                    -0.18762  -0.72687  -1.29446 
 1                    -1.27617  -0.82687  -1.20768 
 1                     0.13011  -1.17826  -2.24342 
 8                    -0.45636   1.35096  -0.2113 
 8                     0.45636  -1.35096  -0.2113 
 6                    -0.21865   2.66645   0.00139 
 6                    -0.85478   3.22847   1.10668 
 6                     0.59574   3.45597  -0.80343 
 6                    -0.67599   4.56585   1.40029 
 6                     0.76573   4.80038  -0.49346 
 6                     0.13653   5.36355   0.602 
 1                    -1.48232   2.59334   1.72017 
 1                     1.09936   3.04073  -1.66593 
 1                    -1.17537   4.99163   2.26319 
 1                     1.40283   5.4087   -1.12551 
 1                     0.27542   6.41201   0.83543 
 6                     0.21865  -2.66645   0.00139 
 6                    -0.59574  -3.45597  -0.80343 
 6                     0.85478  -3.22847   1.10668 
 6                    -0.76573  -4.80038  -0.49346 
 6                     0.67599  -4.56585   1.40029 
 6                    -0.13653  -5.36355   0.602 
 1                    -1.09936  -3.04073  -1.66593 
 1                     1.48232  -2.59334   1.72017 
 1                    -1.40283  -5.4087   -1.12551 
 1                     1.17537  -4.99163   2.26319 
 1                    -0.27542  -6.41201   0.83543 
 
 NAtoms=     30 NQM=       30 NQMF=       0 NMMI=      0 NMMIF=      0
                NMic=       0 NMicF=      0.
                    Isotopes and Nuclear Properties:
 (Nuclear quadrupole moments (NQMom) in fm**2, nuclear magnetic moments (NMagM)
  in nuclear magnetons)

  Atom         1           2           3           4           5           6           7           8           9          10
 IAtWgt=          12           1           1          12           1           1          16          16          12          12
 AtmWgt=  12.0000000   1.0078250   1.0078250  12.0000000   1.0078250   1.0078250  15.9949146  15.9949146  12.0000000  12.0000000
 NucSpn=           0           1           1           0           1           1           0           0           0           0
 AtZEff=   0.0000000   0.0000000   0.0000000   0.0000000   0.0000000   0.0000000   0.0000000   0.0000000   0.0000000   0.0000000
 NQMom=    0.0000000   0.0000000   0.0000000   0.0000000   0.0000000   0.0000000   0.0000000   0.0000000   0.0000000   0.0000000
 NMagM=    0.0000000   2.7928460   2.7928460   0.0000000   2.7928460   2.7928460   0.0000000   0.0000000   0.0000000   0.0000000
 AtZNuc=   6.0000000   1.0000000   1.0000000   6.0000000   1.0000000   1.0000000   8.0000000   8.0000000   6.0000000   6.0000000

  Atom        11          12          13          14          15          16          17          18          19          20
 IAtWgt=          12          12          12          12           1           1           1           1           1          12
 AtmWgt=  12.0000000  12.0000000  12.0000000  12.0000000   1.0078250   1.0078250   1.0078250   1.0078250   1.0078250  12.0000000
 NucSpn=           0           0           0           0           1           1           1           1           1           0
 AtZEff=   0.0000000   0.0000000   0.0000000   0.0000000   0.0000000   0.0000000   0.0000000   0.0000000   0.0000000   0.0000000
 NQMom=    0.0000000   0.0000000   0.0000000   0.0000000   0.0000000   0.0000000   0.0000000   0.0000000   0.0000000   0.0000000
 NMagM=    0.0000000   0.0000000   0.0000000   0.0000000   2.7928460   2.7928460   2.7928460   2.7928460   2.7928460   0.0000000
 AtZNuc=   6.0000000   6.0000000   6.0000000   6.0000000   1.0000000   1.0000000   1.0000000   1.0000000   1.0000000   6.0000000

  Atom        21          22          23          24          25          26          27          28          29          30
 IAtWgt=          12          12          12          12          12           1           1           1           1           1
 AtmWgt=  12.0000000  12.0000000  12.0000000  12.0000000  12.0000000   1.0078250   1.0078250   1.0078250   1.0078250   1.0078250
 NucSpn=           0           0           0           0           0           1           1           1           1           1
 AtZEff=   0.0000000   0.0000000   0.0000000   0.0000000   0.0000000   0.0000000   0.0000000   0.0000000   0.0000000   0.0000000
 NQMom=    0.0000000   0.0000000   0.0000000   0.0000000   0.0000000   0.0000000   0.0000000   0.0000000   0.0000000   0.0000000
 NMagM=    0.0000000   0.0000000   0.0000000   0.0000000   0.0000000   2.7928460   2.7928460   2.7928460   2.7928460   2.7928460
 AtZNuc=   6.0000000   6.0000000   6.0000000   6.0000000   6.0000000   1.0000000   1.0000000   1.0000000   1.0000000   1.0000000
 Leave Link  101 at Tue Jul  2 14:49:23 2024, MaxMem=  8388608000 cpu:         2.9
 (Enter /home/madghost/g09/l106.exe)
 Numerical evaluation of third derivatives.
 Nuclear step= 0.001000 Angstroms, electric field step= 0.000333 atomic units, NStep=1.
 Leave Link  106 at Tue Jul  2 14:49:23 2024, MaxMem=  8388608000 cpu:         0.0
 (Enter /home/madghost/g09/l103.exe)

 GradGradGradGradGradGradGradGradGradGradGradGradGradGradGradGradGradGrad
 Berny optimization.
 Initialization pass.
 Trust Radius=3.00D-01 FncErr=1.00D-07 GrdErr=1.00D-07
 Number of steps in this run=      2 maximum allowed number of steps=      2.
 GradGradGradGradGradGradGradGradGradGradGradGradGradGradGradGradGradGrad

 Leave Link  103 at Tue Jul  2 14:49:23 2024, MaxMem=  8388608000 cpu:         0.7
 (Enter /home/madghost/g09/l202.exe)
                          Input orientation:                          
 ---------------------------------------------------------------------
 Center     Atomic      Atomic             Coordinates (Angstroms)
 Number     Number       Type             X           Y           Z
 ---------------------------------------------------------------------
      1          6           0        0.187619    0.726872   -1.294463
      2          1           0       -0.130113    1.178259   -2.243415
      3          1           0        1.276174    0.826874   -1.207677
      4          6           0       -0.187619   -0.726872   -1.294463
      5          1           0       -1.276174   -0.826874   -1.207677
      6          1           0        0.130113   -1.178259   -2.243415
      7          8           0       -0.456357    1.350964   -0.211297
      8          8           0        0.456357   -1.350964   -0.211297
      9          6           0       -0.218648    2.666454    0.001390
     10          6           0       -0.854777    3.228466    1.106683
     11          6           0        0.595742    3.455970   -0.803425
     12          6           0       -0.675992    4.565850    1.400290
     13          6           0        0.765725    4.800384   -0.493457
     14          6           0        0.136528    5.363545    0.602003
     15          1           0       -1.482319    2.593337    1.720169
     16          1           0        1.099358    3.040730   -1.665930
     17          1           0       -1.175370    4.991627    2.263187
     18          1           0        1.402831    5.408700   -1.125506
     19          1           0        0.275418    6.412013    0.835426
     20          6           0        0.218648   -2.666454    0.001390
     21          6           0       -0.595742   -3.455970   -0.803425
     22          6           0        0.854777   -3.228466    1.106683
     23          6           0       -0.765725   -4.800384   -0.493457
     24          6           0        0.675992   -4.565850    1.400290
     25          6           0       -0.136528   -5.363545    0.602003
     26          1           0       -1.099358   -3.040730   -1.665930
     27          1           0        1.482319   -2.593337    1.720169
     28          1           0       -1.402831   -5.408700   -1.125506
     29          1           0        1.175370   -4.991627    2.263187
     30          1           0       -0.275418   -6.412013    0.835426
 ---------------------------------------------------------------------
                    Distance matrix (angstroms):
                    1          2          3          4          5
     1  C    0.000000
     2  H    1.097822   0.000000
     3  H    1.096578   1.781535   0.000000
     4  C    1.501391   2.129164   2.136434   0.000000
     5  H    2.136434   2.531159   3.041277   1.096578   0.000000
     6  H    2.129164   2.370843   2.531159   1.097822   1.781535
     7  O    1.406216   2.065373   2.066182   2.358574   2.531373
     8  O    2.358574   3.297032   2.531373   1.406216   2.066182
     9  C    2.367756   2.694756   2.660900   3.632473   3.844938
    10  C    3.620782   3.993951   3.957886   4.674965   4.688243
    11  C    2.802795   2.790771   2.745643   4.283800   4.691507
    12  C    4.769200   5.005032   4.959071   5.959288   6.020231
    13  C    4.191577   4.121246   4.069330   5.665777   6.028722
    14  C    5.009783   5.067950   5.015488   6.387083   6.602420
    15  H    3.919233   4.420510   4.393399   4.667766   4.506953
    16  H    2.514596   2.305187   2.267690   3.998640   4.561963
    17  H    5.718632   5.995315   5.949969   6.806890   6.775840
    18  H    4.839917   4.636407   4.584313   6.340609   6.787209
    19  H    6.071652   6.085713   6.030718   7.464215   7.680052
    20  C    3.632473   4.465714   3.844938   2.367756   2.660900
    21  C    4.283800   4.875086   4.691507   2.802795   2.745643
    22  C    4.674965   5.622490   4.688243   3.620782   3.957886
    23  C    5.665777   6.261831   6.028722   4.191577   4.069330
    24  C    5.959288   6.849904   6.020231   4.769200   4.959071
    25  C    6.387083   7.133838   6.602420   5.009783   5.015488
    26  H    3.998640   4.367241   4.561963   2.514596   2.267690
    27  H    4.667766   5.703935   4.506953   3.919233   4.393399
    28  H    6.340609   6.801291   6.787209   4.839917   4.584313
    29  H    6.806890   7.751209   6.775840   5.718632   5.949969
    30  H    7.464215   8.192228   7.680052   6.071652   6.030718
                    6          7          8          9         10
     6  H    0.000000
     7  O    3.297032   0.000000
     8  O    2.065373   2.851922   0.000000
     9  C    4.465714   1.353608   4.079279   0.000000
    10  C    5.622490   2.328266   4.942401   1.393625   0.000000
    11  C    4.875086   2.426639   4.845272   1.390789   2.409207
    12  C    6.849904   3.602908   6.236034   2.402871   1.380857
    13  C    6.261831   3.670367   6.165582   2.401566   2.767201
    14  C    7.133838   4.136880   6.771143   2.785890   2.407478
    15  H    5.703935   2.515283   4.800681   2.134575   1.083311
    16  H    4.367241   2.718734   4.670801   2.158050   3.397245
    17  H    7.751209   4.460323   7.001005   3.381933   2.132843
    18  H    6.801291   4.556049   6.886556   3.379201   3.851348
    19  H    8.192228   5.219707   7.835316   3.868970   3.389084
    20  C    2.694756   4.079279   1.353608   5.350807   6.092946
    21  C    2.790771   4.845272   2.426639   6.186599   6.956817
    22  C    3.993951   4.942401   2.328266   6.092946   6.679412
    23  C    4.121246   6.165582   3.670367   7.503188   8.187235
    24  C    5.005032   6.236034   3.602908   7.420480   7.948636
    25  C    5.067950   6.771143   4.136880   8.052848   8.636738
    26  H    2.305187   4.670801   2.718734   6.010620   6.859302
    27  H    4.420510   4.800681   2.515283   5.789032   6.303314
    28  H    4.636407   6.886556   4.556049   8.238950   8.937766
    29  H    5.995315   7.001005   4.460323   8.105875   8.545696
    30  H    6.085713   7.835316   5.219707   9.116875   9.661681
                   11         12         13         14         15
    11  C    0.000000
    12  C    2.775878   0.000000
    13  C    1.390116   2.391617   0.000000
    14  C    2.413493   1.390600   1.383138   0.000000
    15  H    3.380976   2.154830   3.850311   3.397795   0.000000
    16  H    1.081651   3.857404   2.140651   3.386153   4.281458
    17  H    3.859947   1.084092   3.376908   2.149170   2.478080
    18  H    2.137354   3.378098   1.084176   2.142393   4.934392
    19  H    3.395089   2.152341   2.145619   1.083080   4.295893
    20  C    6.186599   7.420480   7.503188   8.052848   5.789032
    21  C    7.013883   8.319399   8.373593   8.960764   6.614277
    22  C    6.956817   7.948636   8.187235   8.636738   6.303314
    23  C    8.373593   9.556185   9.722144  10.262531   7.751178
    24  C    8.319399   9.231241   9.556185   9.976030   7.484289
    25  C    8.960764   9.976030  10.262531  10.730565   8.146988
    26  H    6.769371   8.212247   8.144710   8.792200   6.584454
    27  H    6.614277   7.484289   7.751178   8.146988   5.974167
    28  H    9.092877  10.315018  10.455980  11.017948   8.493337
    29  H    9.005663   9.773305  10.180883  10.538895   8.055424
    30  H   10.041008  10.999682  11.338772  11.785073   9.128839
                   16         17         18         19         20
    16  H    0.000000
    17  H    4.941492   0.000000
    18  H    2.447741   4.278354   0.000000
    19  H    4.277991   2.482093   2.474460   0.000000
    20  C    6.010620   8.105875   8.238950   9.116875   0.000000
    21  C    6.769371   9.005663   9.092877  10.041008   1.390789
    22  C    6.859302   8.545696   8.937766   9.661681   1.393625
    23  C    8.144710  10.180883  10.455980  11.338772   2.401566
    24  C    8.212247   9.773305  10.315018  10.999682   2.402871
    25  C    8.792200  10.538895  11.017948  11.785073   2.785890
    26  H    6.466723   8.942175   8.828696   9.874267   2.158050
    27  H    6.584454   8.055424   8.493337   9.128839   2.134575
    28  H    8.828696  10.940831  11.175325  12.099216   3.379201
    29  H    8.942175  10.256283  10.940831  11.527854   3.381933
    30  H    9.874267  11.527854  12.099216  12.835851   3.868970
                   21         22         23         24         25
    21  C    0.000000
    22  C    2.409207   0.000000
    23  C    1.390116   2.767201   0.000000
    24  C    2.775878   1.380857   2.391617   0.000000
    25  C    2.413493   2.407478   1.383138   1.390600   0.000000
    26  H    1.081651   3.397245   2.140651   3.857404   3.386153
    27  H    3.380976   1.083311   3.850311   2.154830   3.397795
    28  H    2.137354   3.851348   1.084176   3.378098   2.142393
    29  H    3.859947   2.132843   3.376908   1.084092   2.149170
    30  H    3.395089   3.389084   2.145619   2.152341   1.083080
                   26         27         28         29         30
    26  H    0.000000
    27  H    4.281458   0.000000
    28  H    2.447741   4.934392   0.000000
    29  H    4.941492   2.478080   4.278354   0.000000
    30  H    4.277991   4.295893   2.474460   2.482093   0.000000
 Stoichiometry    C14H14O2
 Framework group  C2[X(C14H14O2)]
 Deg. of freedom    43
 Full point group                 C2      NOp   2
 Largest Abelian subgroup         C2      NOp   2
 Largest concise Abelian subgroup C2      NOp   2
                         Standard orientation:                         
 ---------------------------------------------------------------------
 Center     Atomic      Atomic             Coordinates (Angstroms)
 Number     Number       Type             X           Y           Z
 ---------------------------------------------------------------------
      1          6           0        0.180647    0.728636   -1.294463
      2          1           0       -0.141395    1.176958   -2.243415
      3          1           0        1.268194    0.839062   -1.207677
      4          6           0       -0.180647   -0.728636   -1.294463
      5          1           0       -1.268194   -0.839062   -1.207677
      6          1           0        0.141395   -1.176958   -2.243415
      7          8           0       -0.469278    1.346530   -0.211297
      8          8           0        0.469278   -1.346530   -0.211297
      9          6           0       -0.244183    2.664237    0.001390
     10          6           0       -0.885667    3.220129    1.106683
     11          6           0        0.562606    3.461519   -0.803425
     12          6           0       -0.719702    4.559164    1.400290
     13          6           0        0.719702    4.807499   -0.493457
     14          6           0        0.085139    5.364607    0.602003
     15          1           0       -1.507095    2.579017    1.720169
     16          1           0        1.070177    3.051122   -1.665930
     17          1           0       -1.223136    4.980138    2.263187
     18          1           0        1.350951    5.421891   -1.125506
     19          1           0        0.213978    6.414357    0.835426
     20          6           0        0.244183   -2.664237    0.001390
     21          6           0       -0.562606   -3.461519   -0.803425
     22          6           0        0.885667   -3.220129    1.106683
     23          6           0       -0.719702   -4.807499   -0.493457
     24          6           0        0.719702   -4.559164    1.400290
     25          6           0       -0.085139   -5.364607    0.602003
     26          1           0       -1.070177   -3.051122   -1.665930
     27          1           0        1.507095   -2.579017    1.720169
     28          1           0       -1.350951   -5.421891   -1.125506
     29          1           0        1.223136   -4.980138    2.263187
     30          1           0       -0.213978   -6.414357    0.835426
 ---------------------------------------------------------------------
 Rotational constants (GHZ):      1.9122983      0.1787046      0.1720277
 Leave Link  202 at Tue Jul  2 14:49:23 2024, MaxMem=  8388608000 cpu:         0.2
 (Enter /home/madghost/g09/l301.exe)
 Standard basis: def2TZVP (5D, 7F)
 Ernie: Thresh=  0.10000D-02 Tol=  0.10000D-05 Strict=F.
 There are   330 symmetry adapted cartesian basis functions of A   symmetry.
 There are   330 symmetry adapted cartesian basis functions of B   symmetry.
 There are   290 symmetry adapted basis functions of A   symmetry.
 There are   290 symmetry adapted basis functions of B   symmetry.
   580 basis functions,   928 primitive gaussians,   660 cartesian basis functions
    57 alpha electrons       57 beta electrons
       nuclear repulsion energy       976.2457608194 Hartrees.
 IExCor= 1009 DFT=T Ex+Corr=PBE1PBE ExCW=0 ScaHFX=  0.250000
 ScaDFX=  0.750000  0.750000  1.000000  1.000000 ScalE2=  1.000000  1.000000
 IRadAn=      5 IRanWt=     -1 IRanGd=            0 ICorTp=0 IEmpDi=141
 NAtoms=   30 NActive=   30 NUniq=   15 SFac= 4.00D+00 NAtFMM=   60 NAOKFM=F Big=F
 Integral buffers will be    131072 words long.
 Raffenetti 2 integral format.
 Two-electron integral symmetry is turned on.
 R6Disp:  Grimme-D3(BJ) Dispersion energy=       -0.0283957669 Hartrees.
 Nuclear repulsion after empirical dispersion term =      976.2173650526 Hartrees.
 Leave Link  301 at Tue Jul  2 14:49:24 2024, MaxMem=  8388608000 cpu:         1.8
 (Enter /home/madghost/g09/l302.exe)
 NPDir=0 NMtPBC=     1 NCelOv=     1 NCel=       1 NClECP=     1 NCelD=      1
         NCelK=      1 NCelE2=     1 NClLst=     1 CellRange=     0.0.
 One-electron integrals computed using PRISM.
 One-electron integral symmetry used in STVInt
   2 Symmetry operations used in ECPInt.
 ECPInt:  NShTT=   27028 NPrTT=   82204 LenC2=   22813 LenP2D=   50428.
 LDataN:  DoStor=T MaxTD1= 6 Len=  172
 NBasis=   580 RedAO= T EigKep=  6.15D-06  NBF=   290   290
 NBsUse=   580 1.00D-06 EigRej= -1.00D+00 NBFU=   290   290
 Precomputing XC quadrature grid using
 IXCGrd= 4 IRadAn=           5 IRanWt=          -1 IRanGd=           0 AccXCQ= 0.00D+00.
 Generated NRdTot=       0 NPtTot=           0 NUsed=           0 NTot=          32
 NSgBfM=   637   637   637   637   637 MxSgAt=    30 MxSgA2=    30.
 Leave Link  302 at Tue Jul  2 14:49:25 2024, MaxMem=  8388608000 cpu:        34.0
 (Enter /home/madghost/g09/l303.exe)
 DipDrv:  MaxL=1.
 Leave Link  303 at Tue Jul  2 14:49:25 2024, MaxMem=  8388608000 cpu:         3.8
 (Enter /home/madghost/g09/l401.exe)
 ExpMin= 9.52D-02 ExpMax= 2.70D+04 ExpMxC= 9.22D+02 IAcc=3 IRadAn=         5 AccDes= 0.00D+00
 Harris functional with IExCor= 1009 and IRadAn=       5 diagonalized for initial guess.
 HarFok:  IExCor= 1009 AccDes= 0.00D+00 IRadAn=         5 IDoV= 1 UseB2=F ITyADJ=14
 ICtDFT=  3500011 ScaDFX=  1.000000  1.000000  1.000000  1.000000
 FoFCou: FMM=F IPFlag=           0 FMFlag=      100000 FMFlg1=           0
         NFxFlg=           0 DoJE=T BraDBF=F KetDBF=T FulRan=T
         wScrn=  0.000000 ICntrl=     500 IOpCl=  0 I1Cent=   200000004 NGrid=           0
         NMat0=    1 NMatS0=      1 NMatT0=    0 NMatD0=    1 NMtDS0=    0 NMtDT0=    0
 Petite list used in FoFCou.
 Harris En= -692.057627922402    
 JPrj=0 DoOrth=F DoCkMO=F.
 Initial guess orbital symmetries:
       Occupied  (A) (B) (B) (A) (B) (A) (B) (A) (A) (B) (B) (A)
                 (A) (B) (B) (A) (A) (B) (A) (B) (A) (B) (A) (B)
                 (A) (B) (A) (B) (A) (B) (A) (B) (A) (B) (A) (B)
                 (A) (B) (B) (A) (B) (A) (A) (B) (A) (B) (B) (A)
                 (A) (B) (A) (B) (A) (B) (A) (A) (B)
       Virtual   (B) (A) (A) (B) (A) (B) (A) (A) (B) (A) (B) (B)
                 (A) (B) (A) (B) (A) (B) (B) (A) (A) (B) (B) (A)
                 (B) (A) (B) (A) (B) (A) (B) (A) (A) (B) (B) (A)
                 (B) (A) (B) (A) (B) (A) (B) (A) (A) (B) (A) (B)
                 (B) (B) (A) (A) (A) (B) (A) (B) (A) (B) (B) (A)
                 (B) (A) (B) (A) (B) (A) (A) (B) (B) (A) (B) (A)
                 (A) (B) (B) (A) (B) (A) (B) (A) (A) (B) (B) (A)
                 (A) (B) (B) (A) (A) (B) (B) (A) (A) (B) (A) (B)
                 (B) (A) (B) (A) (B) (A) (B) (A) (B) (A) (A) (B)
                 (A) (B) (B) (A) (B) (A) (A) (B) (A) (B) (A) (B)
                 (A) (A) (B) (B) (B) (B) (A) (B) (A) (B) (A) (B)
                 (A) (A) (A) (B) (A) (B) (B) (A) (A) (B) (A) (B)
                 (B) (A) (B) (A) (B) (A) (B) (A) (B) (B) (A) (B)
                 (A) (A) (B) (A) (B) (A) (B) (A) (B) (A) (A) (B)
                 (B) (A) (A) (B) (A) (B) (B) (A) (B) (A) (A) (B)
                 (B) (A) (B) (A) (B) (A) (B) (A) (B) (A) (A) (B)
                 (B) (A) (B) (A) (A) (B) (B) (A) (B) (A) (B) (B)
                 (A) (A) (B) (B) (A) (B) (A) (A) (B) (A) (B) (A)
                 (B) (A) (A) (B) (B) (A) (B) (B) (A) (B) (A) (B)
                 (A) (B) (A) (A) (B) (B) (B) (A) (A) (B) (A) (A)
                 (B) (A) (B) (A) (A) (B) (B) (A) (B) (A) (B) (A)
                 (B) (A) (B) (A) (B) (A) (B) (A) (B) (A) (B) (A)
                 (B) (A) (B) (A) (A) (B) (A) (B) (A) (B) (A) (B)
                 (A) (B) (B) (A) (B) (A) (A) (B) (B) (A) (A) (A)
                 (B) (B) (A) (B) (B) (A) (A) (B) (A) (B) (A) (B)
                 (A) (B) (A) (B) (A) (A) (B) (B) (A) (B) (A) (B)
                 (A) (A) (B) (A) (B) (B) (A) (B) (B) (A) (A) (B)
                 (A) (B) (B) (A) (A) (B) (B) (A) (A) (A) (B) (A)
                 (B) (B) (B) (A) (B) (A) (B) (A) (B) (A) (A) (B)
                 (B) (A) (B) (A) (B) (B) (A) (A) (B) (A) (A) (B)
                 (B) (A) (B) (A) (A) (B) (A) (B) (A) (B) (B) (A)
                 (B) (A) (B) (A) (B) (A) (B) (A) (A) (B) (A) (A)
                 (B) (B) (A) (B) (A) (B) (A) (B) (A) (B) (B) (A)
                 (B) (A) (A) (B) (B) (B) (A) (B) (A) (B) (A) (A)
                 (B) (B) (A) (A) (B) (A) (B) (A) (B) (A) (B) (A)
                 (B) (A) (A) (B) (B) (A) (B) (A) (A) (B) (A) (B)
                 (B) (A) (B) (A) (B) (A) (A) (B) (B) (A) (B) (B)
                 (A) (A) (B) (A) (B) (A) (B) (A) (B) (A) (B) (A)
                 (A) (B) (B) (A) (B) (A) (A) (B) (B) (A) (B) (A)
                 (B) (A) (B) (A) (B) (B) (A) (A) (B) (B) (A) (A)
                 (B) (A) (B) (A) (B) (B) (A) (A) (B) (A) (B) (B)
                 (A) (A) (B) (A) (B) (A) (B) (A) (B) (B) (A) (B)
                 (A) (A) (B) (A) (B) (A) (B) (A) (B) (A) (B) (A)
                 (B) (A) (B) (A) (B) (B) (A)
 The electronic state of the initial guess is 1-A.
 Leave Link  401 at Tue Jul  2 14:49:28 2024, MaxMem=  8388608000 cpu:       105.7
 (Enter /home/madghost/g09/l502.exe)
 Closed shell SCF:
 Using DIIS extrapolation, IDIIS=  1040.
 Integral symmetry usage will be decided dynamically.
 IVT=     1352118 IEndB=     1352118 NGot=  8388608000 MDV=  8387708783
 LenX=  8387708783 LenY=  8387272523
 Requested convergence on RMS density matrix=1.00D-08 within 128 cycles.
 Requested convergence on MAX density matrix=1.00D-06.
 Requested convergence on             energy=1.00D-06.
 No special actions if energy rises.
 Fock matrices will be formed incrementally for  20 cycles.
 Integral accuracy reduced to 1.0D-05 until final iterations.

 Cycle   1  Pass 0  IDiag  1:
 FoFJK:  IHMeth= 1 ICntrl=       0 DoSepK=F KAlg= 0 I1Cent=   0 FoldK=F
 IRaf= 750000000 NMat=   1 IRICut=       1 DoRegI=T DoRafI=F ISym2E= 1.
 FoFCou: FMM=F IPFlag=           0 FMFlag=      100000 FMFlg1=           0
         NFxFlg=           0 DoJE=F BraDBF=F KetDBF=F FulRan=T
         wScrn=  0.000000 ICntrl=       0 IOpCl=  0 I1Cent=           0 NGrid=           0
         NMat0=    1 NMatS0=      1 NMatT0=    0 NMatD0=    1 NMtDS0=    0 NMtDT0=    0
 Petite list used in FoFCou.
 E= -691.448186172161    
 DIIS: error= 2.22D-02 at cycle   1 NSaved=   1.
 NSaved= 1 IEnMin= 1 EnMin= -691.448186172161     IErMin= 1 ErrMin= 2.22D-02
 ErrMax= 2.22D-02  0.00D+00 EMaxC= 1.00D-01 BMatC= 3.93D-01 BMatP= 3.93D-01
 IDIUse=3 WtCom= 7.78D-01 WtEn= 2.22D-01
 Coeff-Com:  0.100D+01
 Coeff-En:   0.100D+01
 Coeff:      0.100D+01
 Gap=     0.261 Goal=   None    Shift=    0.000
 GapD=    0.261 DampG=1.000 DampE=0.500 DampFc=0.5000 IDamp=-1.
 Damping current iteration by 5.00D-01
 RMSDP=1.98D-02 MaxDP=9.99D-01              OVMax= 2.02D-01

 Cycle   2  Pass 0  IDiag  1:
 RMSU=  9.83D-03    CP:  1.14D+00
 E= -691.618195900765     Delta-E=       -0.170009728604 Rises=F Damp=T
 DIIS: error= 5.45D-03 at cycle   2 NSaved=   2.
 NSaved= 2 IEnMin= 2 EnMin= -691.618195900765     IErMin= 2 ErrMin= 5.45D-03
 ErrMax= 5.45D-03  0.00D+00 EMaxC= 1.00D-01 BMatC= 2.73D-02 BMatP= 3.93D-01
 IDIUse=3 WtCom= 9.46D-01 WtEn= 5.45D-02
 Coeff-Com: -0.831D-02 0.101D+01
 Coeff-En:   0.477D-01 0.952D+00
 Coeff:     -0.526D-02 0.101D+01
 Gap=     0.269 Goal=   None    Shift=    0.000
 RMSDP=1.42D-03 MaxDP=5.13D-02 DE=-1.70D-01 OVMax= 1.41D-01

 Cycle   3  Pass 0  IDiag  1:
 RMSU=  1.35D-03    CP:  1.14D+00  1.05D+00
 E= -691.802814708353     Delta-E=       -0.184618807588 Rises=F Damp=F
 DIIS: error= 8.46D-03 at cycle   3 NSaved=   3.
 NSaved= 3 IEnMin= 3 EnMin= -691.802814708353     IErMin= 2 ErrMin= 5.45D-03
 ErrMax= 8.46D-03  0.00D+00 EMaxC= 1.00D-01 BMatC= 1.67D-02 BMatP= 2.73D-02
 IDIUse=3 WtCom= 9.15D-01 WtEn= 8.46D-02
 Coeff-Com: -0.671D-01 0.452D+00 0.615D+00
 Coeff-En:   0.000D+00 0.000D+00 0.100D+01
 Coeff:     -0.614D-01 0.414D+00 0.648D+00
 Gap=     0.235 Goal=   None    Shift=    0.000
 RMSDP=1.73D-03 MaxDP=9.91D-02 DE=-1.85D-01 OVMax= 6.50D-02

 Cycle   4  Pass 0  IDiag  1:
 RMSU=  5.40D-04    CP:  1.12D+00  8.80D-01  9.49D-01
 E= -691.812737081853     Delta-E=       -0.009922373501 Rises=F Damp=F
 DIIS: error= 6.56D-03 at cycle   4 NSaved=   4.
 NSaved= 4 IEnMin= 4 EnMin= -691.812737081853     IErMin= 2 ErrMin= 5.45D-03
 ErrMax= 6.56D-03  0.00D+00 EMaxC= 1.00D-01 BMatC= 7.15D-03 BMatP= 1.67D-02
 IDIUse=3 WtCom= 9.34D-01 WtEn= 6.56D-02
 Coeff-Com: -0.404D-01 0.147D+00 0.423D+00 0.470D+00
 Coeff-En:   0.000D+00 0.000D+00 0.323D+00 0.677D+00
 Coeff:     -0.377D-01 0.137D+00 0.416D+00 0.484D+00
 Gap=     0.228 Goal=   None    Shift=    0.000
 RMSDP=2.32D-03 MaxDP=1.14D-01 DE=-9.92D-03 OVMax= 2.92D-02

 Cycle   5  Pass 0  IDiag  1:
 RMSU=  2.94D-04    CP:  1.15D+00  1.11D+00  9.44D-01  6.34D-01
 E= -691.820082433657     Delta-E=       -0.007345351804 Rises=F Damp=F
 DIIS: error= 8.33D-04 at cycle   5 NSaved=   5.
 NSaved= 5 IEnMin= 5 EnMin= -691.820082433657     IErMin= 5 ErrMin= 8.33D-04
 ErrMax= 8.33D-04  0.00D+00 EMaxC= 1.00D-01 BMatC= 2.12D-04 BMatP= 7.15D-03
 IDIUse=3 WtCom= 9.92D-01 WtEn= 8.33D-03
 Coeff-Com: -0.107D-01 0.256D-01 0.125D+00 0.220D+00 0.640D+00
 Coeff-En:   0.000D+00 0.000D+00 0.000D+00 0.000D+00 0.100D+01
 Coeff:     -0.106D-01 0.253D-01 0.124D+00 0.218D+00 0.643D+00
 Gap=     0.227 Goal=   None    Shift=    0.000
 RMSDP=1.66D-04 MaxDP=7.52D-03 DE=-7.35D-03 OVMax= 3.77D-03

 Cycle   6  Pass 0  IDiag  1:
 RMSU=  8.68D-05    CP:  1.16D+00  1.13D+00  9.33D-01  6.50D-01  1.03D+00
 E= -691.820265034265     Delta-E=       -0.000182600608 Rises=F Damp=F
 DIIS: error= 1.21D-04 at cycle   6 NSaved=   6.
 NSaved= 6 IEnMin= 6 EnMin= -691.820265034265     IErMin= 6 ErrMin= 1.21D-04
 ErrMax= 1.21D-04  0.00D+00 EMaxC= 1.00D-01 BMatC= 1.40D-05 BMatP= 2.12D-04
 IDIUse=3 WtCom= 9.99D-01 WtEn= 1.21D-03
 Coeff-Com: -0.393D-02 0.701D-02 0.476D-01 0.941D-01 0.333D+00 0.522D+00
 Coeff-En:   0.000D+00 0.000D+00 0.000D+00 0.000D+00 0.000D+00 0.100D+01
 Coeff:     -0.392D-02 0.700D-02 0.475D-01 0.940D-01 0.333D+00 0.523D+00
 Gap=     0.223 Goal=   None    Shift=    0.000
 RMSDP=8.31D-05 MaxDP=3.46D-03 DE=-1.83D-04 OVMax= 8.95D-04

 Cycle   7  Pass 0  IDiag  1:
 RMSU=  3.00D-05    CP:  1.16D+00  1.13D+00  9.28D-01  6.54D-01  1.05D+00
                    CP:  1.30D+00
 E= -691.820272832941     Delta-E=       -0.000007798676 Rises=F Damp=F
 DIIS: error= 6.00D-05 at cycle   7 NSaved=   7.
 NSaved= 7 IEnMin= 7 EnMin= -691.820272832941     IErMin= 7 ErrMin= 6.00D-05
 ErrMax= 6.00D-05  0.00D+00 EMaxC= 1.00D-01 BMatC= 7.31D-07 BMatP= 1.40D-05
 IDIUse=1 WtCom= 1.00D+00 WtEn= 0.00D+00
 Coeff-Com: -0.615D-03 0.481D-03 0.834D-02 0.184D-01 0.821D-01 0.219D+00
 Coeff-Com:  0.672D+00
 Coeff:     -0.615D-03 0.481D-03 0.834D-02 0.184D-01 0.821D-01 0.219D+00
 Coeff:      0.672D+00
 Gap=     0.226 Goal=   None    Shift=    0.000
 RMSDP=1.72D-04 MaxDP=8.63D-03 DE=-7.80D-06 OVMax= 3.73D-04

 Cycle   8  Pass 0  IDiag  1:
 RMSU=  2.80D-05    CP:  1.16D+00  1.12D+00  9.32D-01  6.61D-01  9.70D-01
                    CP:  1.39D+00  2.08D+00
 E= -691.820269622198     Delta-E=        0.000003210743 Rises=F Damp=F
 DIIS: error= 3.50D-05 at cycle   8 NSaved=   8.
 NSaved= 8 IEnMin= 7 EnMin= -691.820272832941     IErMin= 8 ErrMin= 3.50D-05
 ErrMax= 3.50D-05  0.00D+00 EMaxC= 1.00D-01 BMatC= 2.53D-07 BMatP= 7.31D-07
 IDIUse=1 WtCom= 1.00D+00 WtEn= 0.00D+00
 Coeff-Com:  0.664D-04-0.463D-03-0.184D-03 0.416D-03 0.128D-01 0.713D-01
 Coeff-Com:  0.408D+00 0.508D+00
 Coeff:      0.664D-04-0.463D-03-0.184D-03 0.416D-03 0.128D-01 0.713D-01
 Coeff:      0.408D+00 0.508D+00
 Gap=     0.228 Goal=   None    Shift=    0.000
 RMSDP=2.19D-04 MaxDP=1.07D-02 DE= 3.21D-06 OVMax= 1.77D-04

 Cycle   9  Pass 0  IDiag  1:
 RMSU=  1.37D-05    CP:  1.15D+00  1.09D+00  9.39D-01  6.66D-01  8.71D-01
                    CP:  1.25D+00  2.70D+00  1.59D+00
 E= -691.820273809779     Delta-E=       -0.000004187581 Rises=F Damp=F
 DIIS: error= 1.53D-05 at cycle   9 NSaved=   9.
 NSaved= 9 IEnMin= 9 EnMin= -691.820273809779     IErMin= 9 ErrMin= 1.53D-05
 ErrMax= 1.53D-05  0.00D+00 EMaxC= 1.00D-01 BMatC= 2.80D-08 BMatP= 2.53D-07
 IDIUse=1 WtCom= 1.00D+00 WtEn= 0.00D+00
 Coeff-Com:  0.620D-05-0.127D-03 0.176D-03 0.535D-03 0.661D-02 0.280D-01
 Coeff-Com:  0.150D+00 0.226D+00 0.589D+00
 Coeff:      0.620D-05-0.127D-03 0.176D-03 0.535D-03 0.661D-02 0.280D-01
 Coeff:      0.150D+00 0.226D+00 0.589D+00
 Gap=     0.228 Goal=   None    Shift=    0.000
 RMSDP=1.48D-04 MaxDP=7.34D-03 DE=-4.19D-06 OVMax= 5.15D-05

 Cycle  10  Pass 0  IDiag  1:
 RMSU=  6.63D-06    CP:  1.15D+00  1.08D+00  9.44D-01  6.72D-01  8.23D-01
                    CP:  1.03D+00  3.00D+00  1.88D+00  2.33D+00
 E= -691.820278960497     Delta-E=       -0.000005150718 Rises=F Damp=F
 DIIS: error= 1.10D-05 at cycle  10 NSaved=  10.
 NSaved=10 IEnMin=10 EnMin= -691.820278960497     IErMin=10 ErrMin= 1.10D-05
 ErrMax= 1.10D-05  0.00D+00 EMaxC= 1.00D-01 BMatC= 1.54D-08 BMatP= 2.80D-08
 IDIUse=1 WtCom= 1.00D+00 WtEn= 0.00D+00
 Coeff-Com: -0.210D-04-0.468D-04 0.420D-03 0.984D-03 0.664D-02 0.232D-01
 Coeff-Com:  0.101D+00 0.845D-01-0.245D-01 0.808D+00
 Coeff:     -0.210D-04-0.468D-04 0.420D-03 0.984D-03 0.664D-02 0.232D-01
 Coeff:      0.101D+00 0.845D-01-0.245D-01 0.808D+00
 Gap=     0.228 Goal=   None    Shift=    0.000
 RMSDP=7.36D-05 MaxDP=3.71D-03 DE=-5.15D-06 OVMax= 3.95D-05

 Cycle  11  Pass 0  IDiag  1:
 RMSU=  1.27D-05    CP:  1.15D+00  1.07D+00  9.48D-01  6.76D-01  8.22D-01
                    CP:  8.51D-01  3.00D+00  2.01D+00  3.00D+00  3.00D+00
 E= -691.820281047300     Delta-E=       -0.000002086802 Rises=F Damp=F
 DIIS: error= 1.42D-05 at cycle  11 NSaved=  11.
 NSaved=11 IEnMin=11 EnMin= -691.820281047300     IErMin=10 ErrMin= 1.10D-05
 ErrMax= 1.42D-05  0.00D+00 EMaxC= 1.00D-01 BMatC= 1.71D-08 BMatP= 1.54D-08
 IDIUse=1 WtCom= 1.00D+00 WtEn= 0.00D+00
 Coeff-Com: -0.149D-04-0.518D-04 0.350D-03 0.838D-03 0.601D-02 0.219D-01
 Coeff-Com:  0.988D-01 0.878D-01-0.374D-01 0.441D+00 0.381D+00
 Coeff:     -0.149D-04-0.518D-04 0.350D-03 0.838D-03 0.601D-02 0.219D-01
 Coeff:      0.988D-01 0.878D-01-0.374D-01 0.441D+00 0.381D+00
 Gap=     0.228 Goal=   None    Shift=    0.000
 RMSDP=2.99D-05 MaxDP=1.29D-03 DE=-2.09D-06 OVMax= 1.64D-05

 Cycle  12  Pass 0  IDiag  1:
 RMSU=  7.97D-06    CP:  1.15D+00  1.07D+00  9.49D-01  6.69D-01  8.09D-01
                    CP:  8.08D-01  3.00D+00  1.91D+00  3.00D+00  3.00D+00
                    CP:  1.90D+00
 E= -691.820283774102     Delta-E=       -0.000002726802 Rises=F Damp=F
 DIIS: error= 1.09D-05 at cycle  12 NSaved=  12.
 NSaved=12 IEnMin=12 EnMin= -691.820283774102     IErMin=12 ErrMin= 1.09D-05
 ErrMax= 1.09D-05  0.00D+00 EMaxC= 1.00D-01 BMatC= 1.84D-08 BMatP= 1.54D-08
 IDIUse=1 WtCom= 1.00D+00 WtEn= 0.00D+00
 Coeff-Com: -0.913D-05-0.648D-04 0.276D-03 0.695D-03 0.562D-02 0.215D-01
 Coeff-Com:  0.102D+00 0.104D+00 0.550D-01 0.326D+00 0.576D-02 0.379D+00
 Coeff:     -0.913D-05-0.648D-04 0.276D-03 0.695D-03 0.562D-02 0.215D-01
 Coeff:      0.102D+00 0.104D+00 0.550D-01 0.326D+00 0.576D-02 0.379D+00
 Gap=     0.228 Goal=   None    Shift=    0.000
 RMSDP=6.64D-05 MaxDP=3.19D-03 DE=-2.73D-06 OVMax= 1.80D-05

 Cycle  13  Pass 0  IDiag  1:
 RMSU=  4.26D-06    CP:  1.15D+00  1.08D+00  9.48D-01  6.64D-01  8.33D-01
                    CP:  8.34D-01  3.00D+00  1.69D+00  3.00D+00  3.00D+00
                    CP:  2.03D+00  1.68D+00
 E= -691.820286692833     Delta-E=       -0.000002918732 Rises=F Damp=F
 DIIS: error= 1.37D-05 at cycle  13 NSaved=  13.
 NSaved=13 IEnMin=13 EnMin= -691.820286692833     IErMin=12 ErrMin= 1.09D-05
 ErrMax= 1.37D-05  0.00D+00 EMaxC= 1.00D-01 BMatC= 2.53D-08 BMatP= 1.54D-08
 IDIUse=1 WtCom= 1.00D+00 WtEn= 0.00D+00
 Coeff-Com: -0.110D-04-0.637D-04 0.299D-03 0.749D-03 0.587D-02 0.223D-01
 Coeff-Com:  0.104D+00 0.105D+00 0.444D-01 0.314D+00-0.575D-01 0.626D+00
 Coeff-Com: -0.165D+00
 Coeff:     -0.110D-04-0.637D-04 0.299D-03 0.749D-03 0.587D-02 0.223D-01
 Coeff:      0.104D+00 0.105D+00 0.444D-01 0.314D+00-0.575D-01 0.626D+00
 Coeff:     -0.165D+00
 Gap=     0.228 Goal=   None    Shift=    0.000
 RMSDP=2.63D-05 MaxDP=1.25D-03 DE=-2.92D-06 OVMax= 7.34D-06

 Cycle  14  Pass 0  IDiag  1:
 RMSU=  1.72D-06    CP:  1.15D+00  1.07D+00  9.48D-01  6.65D-01  8.22D-01
                    CP:  8.18D-01  3.00D+00  1.70D+00  3.00D+00  3.00D+00
                    CP:  2.11D+00  1.64D+00  5.67D-01
 E= -691.820287391122     Delta-E=       -0.000000698289 Rises=F Damp=F
 DIIS: error= 1.25D-05 at cycle  14 NSaved=  14.
 NSaved=14 IEnMin=14 EnMin= -691.820287391122     IErMin=12 ErrMin= 1.09D-05
 ErrMax= 1.25D-05  0.00D+00 EMaxC= 1.00D-01 BMatC= 2.26D-08 BMatP= 1.54D-08
 IDIUse=1 WtCom= 1.00D+00 WtEn= 0.00D+00
 Coeff-Com: -0.743D-05-0.727D-04 0.259D-03 0.677D-03 0.569D-02 0.223D-01
 Coeff-Com:  0.106D+00 0.110D+00 0.651D-01 0.242D+00-0.202D+00 0.755D+00
 Coeff-Com: -0.977D+00 0.870D+00
 Coeff:     -0.743D-05-0.727D-04 0.259D-03 0.677D-03 0.569D-02 0.223D-01
 Coeff:      0.106D+00 0.110D+00 0.651D-01 0.242D+00-0.202D+00 0.755D+00
 Coeff:     -0.977D+00 0.870D+00
 Gap=     0.228 Goal=   None    Shift=    0.000
 RMSDP=4.34D-05 MaxDP=2.07D-03 DE=-6.98D-07 OVMax= 1.40D-05

 Cycle  15  Pass 0  IDiag  1:
 RMSU=  4.39D-06    CP:  1.15D+00  1.07D+00  9.50D-01  6.67D-01  8.11D-01
                    CP:  7.78D-01  3.00D+00  1.72D+00  3.00D+00  3.00D+00
                    CP:  2.59D+00  1.78D+00  2.00D-01  2.86D+00
 E= -691.820288634097     Delta-E=       -0.000001242974 Rises=F Damp=F
 DIIS: error= 1.13D-05 at cycle  15 NSaved=  15.
 NSaved=15 IEnMin=15 EnMin= -691.820288634097     IErMin=12 ErrMin= 1.09D-05
 ErrMax= 1.13D-05  0.00D+00 EMaxC= 1.00D-01 BMatC= 2.40D-08 BMatP= 1.54D-08
 IDIUse=1 WtCom= 1.00D+00 WtEn= 0.00D+00
 Coeff-Com:  0.282D-05-0.904D-04 0.144D-03 0.463D-03 0.493D-02 0.214D-01
 Coeff-Com:  0.108D+00 0.109D+00 0.221D-02 0.608D-01-0.315D+00 0.162D+01
 Coeff-Com: -0.277D+01 0.380D+01-0.164D+01
 Coeff:      0.282D-05-0.904D-04 0.144D-03 0.463D-03 0.493D-02 0.214D-01
 Coeff:      0.108D+00 0.109D+00 0.221D-02 0.608D-01-0.315D+00 0.162D+01
 Coeff:     -0.277D+01 0.380D+01-0.164D+01
 Gap=     0.228 Goal=   None    Shift=    0.000
 RMSDP=4.21D-05 MaxDP=1.89D-03 DE=-1.24D-06 OVMax= 1.61D-05

 Cycle  16  Pass 0  IDiag  1:
 RMSU=  8.11D-06    CP:  1.15D+00  1.07D+00  9.49D-01  6.66D-01  8.31D-01
                    CP:  8.20D-01  3.00D+00  1.69D+00  3.00D+00  3.00D+00
                    CP:  2.01D+00  1.61D+00 -2.55D-01  1.00D+00 -1.73D+00
 E= -691.820288306093     Delta-E=        0.000000328004 Rises=F Damp=F
 DIIS: error= 1.20D-05 at cycle  16 NSaved=  16.
 NSaved=16 IEnMin=15 EnMin= -691.820288634097     IErMin=12 ErrMin= 1.09D-05
 ErrMax= 1.20D-05  0.00D+00 EMaxC= 1.00D-01 BMatC= 1.98D-08 BMatP= 1.54D-08
 IDIUse=1 WtCom= 1.00D+00 WtEn= 0.00D+00
 Coeff-Com:  0.218D-04-0.102D-03-0.140D-03-0.174D-03 0.201D-02 0.129D-01
 Coeff-Com:  0.819D-01 0.121D+00 0.213D+00-0.250D+00-0.958D-01 0.151D+01
 Coeff-Com: -0.203D+01 0.178D+01-0.134D+01 0.995D+00
 Coeff:      0.218D-04-0.102D-03-0.140D-03-0.174D-03 0.201D-02 0.129D-01
 Coeff:      0.819D-01 0.121D+00 0.213D+00-0.250D+00-0.958D-01 0.151D+01
 Coeff:     -0.203D+01 0.178D+01-0.134D+01 0.995D+00
 Gap=     0.228 Goal=   None    Shift=    0.000
 RMSDP=5.18D-05 MaxDP=2.32D-03 DE= 3.28D-07 OVMax= 1.91D-05

 Cycle  17  Pass 0  IDiag  1:
 RMSU=  6.49D-06    CP:  1.15D+00  1.08D+00  9.47D-01  6.69D-01  8.57D-01
                    CP:  9.04D-01  3.00D+00  1.65D+00  3.00D+00  3.00D+00
                    CP:  1.45D+00  9.92D-01 -9.76D-01 -1.86D-01 -2.78D+00
                    CP:  1.97D+00
 E= -691.820282144325     Delta-E=        0.000006161769 Rises=F Damp=F
 DIIS: error= 1.28D-05 at cycle  17 NSaved=  17.
 NSaved=17 IEnMin=15 EnMin= -691.820288634097     IErMin=12 ErrMin= 1.09D-05
 ErrMax= 1.28D-05  0.00D+00 EMaxC= 1.00D-01 BMatC= 1.83D-08 BMatP= 1.54D-08
 IDIUse=1 WtCom= 1.00D+00 WtEn= 0.00D+00
 Coeff-Com:  0.350D-04-0.117D-03-0.307D-03-0.543D-03 0.518D-03 0.894D-02
 Coeff-Com:  0.711D-01 0.148D+00 0.474D+00-0.332D+00-0.173D+00 0.130D+01
 Coeff-Com: -0.422D+00-0.109D+01 0.538D-01-0.302D+00 0.126D+01
 Coeff:      0.350D-04-0.117D-03-0.307D-03-0.543D-03 0.518D-03 0.894D-02
 Coeff:      0.711D-01 0.148D+00 0.474D+00-0.332D+00-0.173D+00 0.130D+01
 Coeff:     -0.422D+00-0.109D+01 0.538D-01-0.302D+00 0.126D+01
 Gap=     0.228 Goal=   None    Shift=    0.000
 RMSDP=1.73D-04 MaxDP=8.27D-03 DE= 6.16D-06 OVMax= 5.86D-05

 Problem detected with inexpensive integrals.
 Switching to full accuracy and repeating last cycle.
 Cycle  18  Pass 1  IDiag  1:
 E= -691.820073919496     Delta-E=        0.000208224829 Rises=F Damp=F
 DIIS: error= 1.46D-03 at cycle   1 NSaved=   1.
 NSaved= 1 IEnMin= 1 EnMin= -691.820073919496     IErMin= 1 ErrMin= 1.46D-03
 ErrMax= 1.46D-03  0.00D+00 EMaxC= 1.00D-01 BMatC= 1.13D-04 BMatP= 1.13D-04
 IDIUse=3 WtCom= 9.85D-01 WtEn= 1.46D-02
 Coeff-Com:  0.100D+01
 Coeff-En:   0.100D+01
 Coeff:      0.100D+01
 Gap=     0.228 Goal=   None    Shift=    0.000
 GapD=    0.228 DampG=1.000 DampE=1.000 DampFc=1.0000 IDamp=-1.
 RMSDP=1.02D-02 MaxDP=4.86D-01 DE= 2.08D-04 OVMax= 3.34D-03

 Cycle  19  Pass 1  IDiag  1:
 RMSU=  5.10D-03    CP:  3.33D-01
 E= -691.820202439967     Delta-E=       -0.000128520472 Rises=F Damp=F
 DIIS: error= 2.59D-05 at cycle   2 NSaved=   2.
 NSaved= 2 IEnMin= 2 EnMin= -691.820202439967     IErMin= 2 ErrMin= 2.59D-05
 ErrMax= 2.59D-05  0.00D+00 EMaxC= 1.00D-01 BMatC= 4.34D-08 BMatP= 1.13D-04
 IDIUse=1 WtCom= 1.00D+00 WtEn= 0.00D+00
 Coeff-Com: -0.148D-01 0.101D+01
 Coeff:     -0.148D-01 0.101D+01
 Gap=     0.228 Goal=   None    Shift=    0.000
 RMSDP=1.14D-04 MaxDP=5.39D-03 DE=-1.29D-04 OVMax= 9.59D-05

 Cycle  20  Pass 1  IDiag  1:
 RMSU=  4.84D-05    CP:  3.26D-01  1.01D+00
 E= -691.820202495989     Delta-E=       -0.000000056022 Rises=F Damp=F
 DIIS: error= 4.19D-06 at cycle   3 NSaved=   3.
 NSaved= 3 IEnMin= 3 EnMin= -691.820202495989     IErMin= 3 ErrMin= 4.19D-06
 ErrMax= 4.19D-06  0.00D+00 EMaxC= 1.00D-01 BMatC= 1.62D-08 BMatP= 4.34D-08
 IDIUse=1 WtCom= 1.00D+00 WtEn= 0.00D+00
 Coeff-Com: -0.709D-02 0.479D+00 0.528D+00
 Coeff:     -0.709D-02 0.479D+00 0.528D+00
 Gap=     0.228 Goal=   None    Shift=    0.000
 RMSDP=1.55D-06 MaxDP=1.06D-04 DE=-5.60D-08 OVMax= 2.77D-05

 Cycle  21  Pass 1  IDiag  1:
 RMSU=  7.23D-07    CP:  3.25D-01  1.01D+00  1.01D+00
 E= -691.820202505697     Delta-E=       -0.000000009707 Rises=F Damp=F
 DIIS: error= 2.01D-06 at cycle   4 NSaved=   4.
 NSaved= 4 IEnMin= 4 EnMin= -691.820202505697     IErMin= 4 ErrMin= 2.01D-06
 ErrMax= 2.01D-06  0.00D+00 EMaxC= 1.00D-01 BMatC= 3.04D-09 BMatP= 1.62D-08
 IDIUse=1 WtCom= 1.00D+00 WtEn= 0.00D+00
 Coeff-Com: -0.794D-04 0.730D-03 0.299D+00 0.700D+00
 Coeff:     -0.794D-04 0.730D-03 0.299D+00 0.700D+00
 Gap=     0.228 Goal=   None    Shift=    0.000
 RMSDP=7.76D-07 MaxDP=4.38D-05 DE=-9.71D-09 OVMax= 1.10D-05

 Cycle  22  Pass 1  IDiag  1:
 RMSU=  2.37D-07    CP:  3.25D-01  1.01D+00  1.02D+00  1.19D+00
 E= -691.820202507735     Delta-E=       -0.000000002039 Rises=F Damp=F
 DIIS: error= 5.18D-07 at cycle   5 NSaved=   5.
 NSaved= 5 IEnMin= 5 EnMin= -691.820202507735     IErMin= 5 ErrMin= 5.18D-07
 ErrMax= 5.18D-07  0.00D+00 EMaxC= 1.00D-01 BMatC= 1.42D-10 BMatP= 3.04D-09
 IDIUse=1 WtCom= 1.00D+00 WtEn= 0.00D+00
 Coeff-Com:  0.109D-03-0.999D-02 0.156D+00 0.392D+00 0.462D+00
 Coeff:      0.109D-03-0.999D-02 0.156D+00 0.392D+00 0.462D+00
 Gap=     0.228 Goal=   None    Shift=    0.000
 RMSDP=4.26D-08 MaxDP=2.30D-06 DE=-2.04D-09 OVMax= 3.00D-06

 Cycle  23  Pass 1  IDiag  1:
 RMSU=  1.92D-08    CP:  3.25D-01  1.01D+00  1.02D+00  1.21D+00  1.04D+00
 E= -691.820202507849     Delta-E=       -0.000000000114 Rises=F Damp=F
 DIIS: error= 1.83D-07 at cycle   6 NSaved=   6.
 NSaved= 6 IEnMin= 6 EnMin= -691.820202507849     IErMin= 6 ErrMin= 1.83D-07
 ErrMax= 1.83D-07  0.00D+00 EMaxC= 1.00D-01 BMatC= 6.18D-12 BMatP= 1.42D-10
 IDIUse=1 WtCom= 1.00D+00 WtEn= 0.00D+00
 Coeff-Com:  0.639D-04-0.548D-02 0.682D-01 0.173D+00 0.248D+00 0.517D+00
 Coeff:      0.639D-04-0.548D-02 0.682D-01 0.173D+00 0.248D+00 0.517D+00
 Gap=     0.228 Goal=   None    Shift=    0.000
 RMSDP=7.62D-09 MaxDP=2.81D-07 DE=-1.14D-10 OVMax= 9.96D-07

 SCF Done:  E(RPBE1PBE) =  -691.820202508     A.U. after   23 cycles
            NFock= 23  Conv=0.76D-08     -V/T= 2.0046
 KE= 6.886278921646D+02 PE=-3.563845971374D+03 EE= 1.207180511649D+03
 Leave Link  502 at Tue Jul  2 14:52:11 2024, MaxMem=  8388608000 cpu:      5195.0
 (Enter /home/madghost/g09/l801.exe)
 DoSCS=F DFT=T ScalE2(SS,OS)=  1.000000  1.000000
 Range of M.O.s used for correlation:     1   580
 NBasis=   580 NAE=    57 NBE=    57 NFC=     0 NFV=     0
 NROrb=    580 NOA=    57 NOB=    57 NVA=   523 NVB=   523

 **** Warning!!: The largest alpha MO coefficient is  0.45445486D+02

 Leave Link  801 at Tue Jul  2 14:52:11 2024, MaxMem=  8388608000 cpu:         0.6
 (Enter /home/madghost/g09/l1101.exe)
 Using compressed storage, NAtomX=    30.
 Will process     31 centers per pass.
   2 Symmetry operations used in ECPInt.
 ECPInt:  NShTT=   27028 NPrTT=   82204 LenC2=   22813 LenP2D=   50428.
 LDataN:  DoStor=T MaxTD1= 7 Len=  274
 Number of processors reduced to  20 by ecpmxn.
 R6Disp: Adding Grimme-D3(BJ) dispersion energy 1st derivatives to the gradient.
 Leave Link 1101 at Tue Jul  2 14:52:15 2024, MaxMem=  8388608000 cpu:       100.2
 (Enter /home/madghost/g09/l1102.exe)
 Symmetrizing basis deriv contribution to polar:
 IMax=3 JMax=2 DiffMx= 0.00D+00
 Leave Link 1102 at Tue Jul  2 14:52:16 2024, MaxMem=  8388608000 cpu:         3.3
 (Enter /home/madghost/g09/l1110.exe)
 Forming Gx(P) for the SCF density, NAtomX=    30.
 Integral derivatives from FoFJK, PRISM(SPDF).
 Do as many integral derivatives as possible in FoFJK.
 G2DrvN: MDV=    8388607656.
 G2DrvN: will do    31 centers at a time, making    1 passes.
 Calling FoFCou, ICntrl=  3107 FMM=F I1Cent=   0 AccDes= 0.00D+00.
 FoFJK:  IHMeth= 1 ICntrl=    3107 DoSepK=F KAlg= 0 I1Cent=   0 FoldK=F
 IRaf=         0 NMat=   1 IRICut=       1 DoRegI=T DoRafI=F ISym2E= 1.
 FoFCou: FMM=F IPFlag=           0 FMFlag=      100000 FMFlg1=           0
         NFxFlg=           0 DoJE=F BraDBF=F KetDBF=F FulRan=T
         wScrn=  0.000000 ICntrl=    3107 IOpCl=  0 I1Cent=           0 NGrid=           0
         NMat0=    1 NMatS0=      1 NMatT0=    0 NMatD0=    1 NMtDS0=    0 NMtDT0=    0
 Petite list used in FoFCou.
 End of G2Drv F.D. properties file   721 does not exist.
 End of G2Drv F.D. properties file   722 does not exist.
 End of G2Drv F.D. properties file   788 does not exist.
 Leave Link 1110 at Tue Jul  2 14:55:16 2024, MaxMem=  8388608000 cpu:      5758.4
 (Enter /home/madghost/g09/l1002.exe)
 Minotr:  Closed shell wavefunction.
          IDoAtm=111111111111111111111111111111
          Direct CPHF calculation.
          Differentiating once with respect to electric field.
                with respect to dipole field.
          Differentiating once with respect to nuclear coordinates.
          Using symmetry in CPHF.
          Requested convergence is 1.0D-08 RMS, and 1.0D-07 maximum.
          Secondary convergence is 1.0D-12 RMS, and 1.0D-12 maximum.
          NewPWx=T KeepS1=F KeepF1=F KeepIn=T MapXYZ=F SortEE=F KeepMc=T.
          MDV=    8388607116 using IRadAn=       1.
 Generate precomputed XC quadrature information.
          Solving linear equations simultaneously, MaxMat=       0.
 FoFJK:  IHMeth= 1 ICntrl=       0 DoSepK=F KAlg= 0 I1Cent=   0 FoldK=F
 IRaf= 750000000 NMat=  48 IRICut=     120 DoRegI=T DoRafI=T ISym2E= 2.
 FoFCou: FMM=F IPFlag=           0 FMFlag=      100000 FMFlg1=           0
         NFxFlg=           0 DoJE=F BraDBF=F KetDBF=F FulRan=T
         wScrn=  0.000000 ICntrl=       0 IOpCl=  0 I1Cent=           0 NGrid=           0
         NMat0=   48 NMatS0=     48 NMatT0=    0 NMatD0=   48 NMtDS0=    0 NMtDT0=    0
 Integrals replicated using symmetry in FoFCou.
          There are    48 degrees of freedom in the 1st order CPHF.  IDoFFX=4 NUNeed=    48.
     48 vectors produced by pass  0 Test12= 6.21D-14 2.08D-09 XBig12= 2.01D+02 6.82D+00.
 AX will form    48 AO Fock derivatives at one time.
     48 vectors produced by pass  1 Test12= 6.21D-14 2.08D-09 XBig12= 5.73D+01 1.30D+00.
     48 vectors produced by pass  2 Test12= 6.21D-14 2.08D-09 XBig12= 3.85D+00 1.84D-01.
     48 vectors produced by pass  3 Test12= 6.21D-14 2.08D-09 XBig12= 8.39D-02 4.06D-02.
     48 vectors produced by pass  4 Test12= 6.21D-14 2.08D-09 XBig12= 1.91D-03 6.67D-03.
     48 vectors produced by pass  5 Test12= 6.21D-14 2.08D-09 XBig12= 2.60D-05 6.78D-04.
     30 vectors produced by pass  6 Test12= 6.21D-14 2.08D-09 XBig12= 1.74D-07 4.39D-05.
      7 vectors produced by pass  7 Test12= 6.21D-14 2.08D-09 XBig12= 8.36D-10 1.96D-06.
      3 vectors produced by pass  8 Test12= 6.21D-14 2.08D-09 XBig12= 8.02D-12 1.59D-07.
      3 vectors produced by pass  9 Test12= 6.21D-14 2.08D-09 XBig12= 6.91D-14 1.83D-08.
      3 vectors produced by pass 10 Test12= 6.21D-14 2.08D-09 XBig12= 1.81D-14 1.68D-08.
      2 vectors produced by pass 11 Test12= 6.21D-14 2.08D-09 XBig12= 1.36D-14 2.77D-08.
 InvSVY:  IOpt=1 It=  1 EMax= 8.88D-15
 Solved reduced A of dimension   336 with    48 vectors.
 FullF1:  Do perturbations    1 to    48.
 Isotropic polarizability for W=    0.000000      168.49 Bohr**3.
 End of Minotr F.D. properties file   721 does not exist.
 End of Minotr F.D. properties file   722 does not exist.
 End of Minotr F.D. properties file   788 does not exist.
 Leave Link 1002 at Tue Jul  2 15:15:36 2024, MaxMem=  8388608000 cpu:     39025.4
 (Enter /home/madghost/g09/l601.exe)
 Copying SCF densities to generalized density rwf, IOpCl= 0 IROHF=0.

 **********************************************************************

            Population analysis using the SCF density.

 **********************************************************************

 Orbital symmetries:
       Occupied  (A) (B) (A) (B) (B) (A) (B) (A) (B) (A) (B) (A)
                 (A) (B) (B) (A) (A) (B) (A) (B) (A) (B) (A) (B)
                 (A) (B) (A) (B) (A) (B) (A) (B) (B) (A) (A) (B)
                 (B) (A) (A) (B) (A) (B) (A) (B) (A) (B) (A) (B)
                 (A) (B) (A) (A) (B) (B) (A) (A) (B)
       Virtual   (B) (A) (A) (B) (A) (B) (A) (B) (A) (B) (A) (B)
                 (B) (A) (A) (B) (B) (A) (A) (A) (B) (B) (B) (A)
                 (B) (A) (A) (B) (A) (B) (B) (A) (B) (A) (B) (A)
                 (B) (A) (B) (A) (A) (B) (B) (A) (B) (A) (B) (A)
                 (A) (B) (A) (B) (B) (A) (A) (B) (B) (A) (B) (A)
                 (B) (B) (A) (A) (B) (A) (A) (B) (B) (A) (B) (A)
                 (B) (A) (A) (B) (A) (B) (B) (A) (B) (B) (A) (A)
                 (B) (A) (A) (B) (A) (B) (B) (A) (A) (B) (B) (B)
                 (A) (A) (B) (A) (A) (B) (B) (A) (A) (B) (A) (B)
                 (B) (B) (A) (B) (A) (A) (A) (B) (A) (B) (A) (B)
                 (B) (A) (B) (A) (B) (A) (B) (B) (A) (B) (A) (A)
                 (B) (A) (A) (B) (A) (B) (B) (A) (A) (A) (B) (B)
                 (B) (A) (B) (A) (B) (A) (B) (A) (B) (B) (A) (B)
                 (A) (A) (B) (A) (B) (A) (A) (B) (A) (B) (B) (A)
                 (B) (A) (B) (A) (B) (A) (A) (B) (B) (A) (B) (A)
                 (A) (B) (B) (B) (A) (A) (A) (B) (B) (A) (B) (A)
                 (B) (A) (B) (A) (B) (A) (B) (A) (B) (B) (A) (B)
                 (A) (B) (A) (A) (B) (A) (B) (A) (B) (B) (A) (A)
                 (A) (B) (B) (A) (B) (A) (B) (A) (B) (A) (B) (B)
                 (A) (B) (A) (A) (B) (B) (B) (A) (A) (B) (A) (A)
                 (B) (A) (B) (A) (A) (B) (B) (A) (B) (A) (B) (A)
                 (B) (A) (B) (A) (B) (B) (A) (A) (B) (A) (A) (B)
                 (B) (A) (B) (A) (A) (B) (A) (B) (A) (B) (A) (B)
                 (B) (A) (A) (B) (A) (B) (A) (B) (A) (B) (A) (A)
                 (B) (B) (A) (B) (A) (B) (A) (B) (A) (B) (A) (B)
                 (A) (B) (A) (B) (A) (B) (A) (B) (A) (B) (A) (B)
                 (A) (B) (A) (A) (B) (B) (A) (B) (B) (A) (A) (B)
                 (A) (B) (A) (B) (A) (B) (A) (B) (A) (A) (B) (B)
                 (A) (B) (B) (A) (B) (A) (B) (A) (A) (B) (A) (B)
                 (B) (A) (B) (A) (B) (B) (A) (A) (A) (B) (A) (B)
                 (B) (A) (B) (A) (A) (B) (A) (B) (B) (A) (A) (B)
                 (B) (A) (B) (A) (B) (A) (A) (B) (A) (B) (A) (B)
                 (A) (B) (A) (B) (A) (A) (B) (B) (A) (B) (B) (A)
                 (B) (A) (A) (B) (B) (B) (A) (B) (A) (B) (A) (A)
                 (B) (B) (A) (A) (B) (A) (A) (B) (B) (B) (A) (A)
                 (B) (A) (B) (A) (B) (A) (B) (A) (A) (B) (A) (B)
                 (B) (A) (B) (A) (B) (A) (B) (A) (B) (A) (B) (A)
                 (B) (A) (B) (A) (B) (A) (A) (B) (B) (A) (B) (A)
                 (B) (A) (B) (A) (B) (A) (A) (B) (B) (A) (B) (A)
                 (B) (A) (B) (A) (B) (B) (A) (A) (B) (B) (A) (A)
                 (B) (A) (B) (A) (B) (B) (A) (A) (B) (A) (B) (B)
                 (A) (A) (B) (A) (B) (A) (B) (A) (B) (B) (A) (B)
                 (A) (A) (B) (A) (B) (A) (B) (A) (B) (A) (B) (A)
                 (B) (A) (B) (A) (B) (B) (A)
 The electronic state is 1-A.
 Alpha  occ. eigenvalues --  -19.24319 -19.24319 -10.28738 -10.28709 -10.28642
 Alpha  occ. eigenvalues --  -10.28642 -10.22793 -10.22793 -10.22658 -10.22658
 Alpha  occ. eigenvalues --  -10.22497 -10.22497 -10.22047 -10.22047 -10.21846
 Alpha  occ. eigenvalues --  -10.21846  -1.11634  -1.10266  -0.88609  -0.88116
 Alpha  occ. eigenvalues --   -0.82094  -0.77619  -0.77367  -0.76740  -0.74403
 Alpha  occ. eigenvalues --   -0.68205  -0.63498  -0.62688  -0.62152  -0.60174
 Alpha  occ. eigenvalues --   -0.56996  -0.56592  -0.51567  -0.51248  -0.50526
 Alpha  occ. eigenvalues --   -0.48476  -0.48297  -0.47705  -0.46127  -0.45392
 Alpha  occ. eigenvalues --   -0.43853  -0.43546  -0.42535  -0.40233  -0.39561
 Alpha  occ. eigenvalues --   -0.39045  -0.37773  -0.37413  -0.36916  -0.34639
 Alpha  occ. eigenvalues --   -0.34407  -0.33930  -0.33826  -0.26930  -0.26920
 Alpha  occ. eigenvalues --   -0.24007  -0.23552
 Alpha virt. eigenvalues --   -0.00791  -0.00755   0.00688   0.00941   0.04177
 Alpha virt. eigenvalues --    0.05629   0.06280   0.07632   0.08661   0.09849
 Alpha virt. eigenvalues --    0.09897   0.09938   0.10533   0.10872   0.11767
 Alpha virt. eigenvalues --    0.11956   0.13094   0.13455   0.13965   0.15832
 Alpha virt. eigenvalues --    0.15915   0.16155   0.16474   0.16655   0.19342
 Alpha virt. eigenvalues --    0.20590   0.21458   0.21490   0.21958   0.22089
 Alpha virt. eigenvalues --    0.22752   0.23306   0.23993   0.24205   0.24319
 Alpha virt. eigenvalues --    0.24887   0.25240   0.25530   0.26233   0.26337
 Alpha virt. eigenvalues --    0.27835   0.27909   0.29094   0.29497   0.30281
 Alpha virt. eigenvalues --    0.30825   0.32073   0.32489   0.33096   0.33895
 Alpha virt. eigenvalues --    0.34836   0.35448   0.36049   0.36349   0.37205
 Alpha virt. eigenvalues --    0.37294   0.37844   0.38104   0.38313   0.39623
 Alpha virt. eigenvalues --    0.40057   0.40983   0.41163   0.41861   0.42263
 Alpha virt. eigenvalues --    0.42586   0.42806   0.43161   0.43980   0.44128
 Alpha virt. eigenvalues --    0.44719   0.44958   0.45343   0.45461   0.45512
 Alpha virt. eigenvalues --    0.46689   0.47196   0.48569   0.49678   0.49841
 Alpha virt. eigenvalues --    0.50143   0.50518   0.50846   0.51011   0.51532
 Alpha virt. eigenvalues --    0.52079   0.52232   0.52412   0.53388   0.56397
 Alpha virt. eigenvalues --    0.56976   0.57694   0.59700   0.61892   0.62390
 Alpha virt. eigenvalues --    0.63432   0.64023   0.65704   0.66063   0.66532
 Alpha virt. eigenvalues --    0.69252   0.70159   0.70671   0.70752   0.71108
 Alpha virt. eigenvalues --    0.71420   0.71952   0.73190   0.74072   0.74342
 Alpha virt. eigenvalues --    0.74798   0.75694   0.76001   0.76315   0.77456
 Alpha virt. eigenvalues --    0.77788   0.78906   0.81149   0.82039   0.82579
 Alpha virt. eigenvalues --    0.82958   0.83582   0.84232   0.85473   0.85628
 Alpha virt. eigenvalues --    0.86955   0.88323   0.89105   0.89323   0.89586
 Alpha virt. eigenvalues --    0.90169   0.91024   0.91111   0.94483   0.95822
 Alpha virt. eigenvalues --    0.97957   0.98502   0.99388   1.00722   1.01810
 Alpha virt. eigenvalues --    1.02534   1.03561   1.03867   1.04716   1.05806
 Alpha virt. eigenvalues --    1.07132   1.08057   1.10388   1.10634   1.14421
 Alpha virt. eigenvalues --    1.14949   1.15242   1.16399   1.19242   1.20430
 Alpha virt. eigenvalues --    1.21289   1.21555   1.22405   1.22474   1.23182
 Alpha virt. eigenvalues --    1.23500   1.24443   1.24795   1.25151   1.26003
 Alpha virt. eigenvalues --    1.26071   1.27307   1.27889   1.29596   1.30236
 Alpha virt. eigenvalues --    1.32207   1.32818   1.37326   1.39390   1.40897
 Alpha virt. eigenvalues --    1.41325   1.43045   1.44338   1.44572   1.45666
 Alpha virt. eigenvalues --    1.46182   1.47479   1.47847   1.48547   1.48697
 Alpha virt. eigenvalues --    1.50817   1.51350   1.51664   1.52531   1.53310
 Alpha virt. eigenvalues --    1.53783   1.53785   1.55008   1.58102   1.58710
 Alpha virt. eigenvalues --    1.58908   1.60577   1.61625   1.62322   1.63580
 Alpha virt. eigenvalues --    1.64337   1.67384   1.67733   1.68418   1.69144
 Alpha virt. eigenvalues --    1.69444   1.70580   1.70974   1.71302   1.71796
 Alpha virt. eigenvalues --    1.71969   1.72863   1.73765   1.75553   1.75704
 Alpha virt. eigenvalues --    1.76417   1.78990   1.79131   1.82791   1.85693
 Alpha virt. eigenvalues --    1.86136   1.86952   1.87073   1.89652   1.90003
 Alpha virt. eigenvalues --    1.92409   1.92682   1.93316   1.93686   1.98453
 Alpha virt. eigenvalues --    1.98507   2.00162   2.01939   2.03443   2.04921
 Alpha virt. eigenvalues --    2.05065   2.07401   2.08212   2.08554   2.09862
 Alpha virt. eigenvalues --    2.10286   2.11610   2.12170   2.14871   2.16775
 Alpha virt. eigenvalues --    2.17203   2.18767   2.19111   2.20011   2.21114
 Alpha virt. eigenvalues --    2.22778   2.25194   2.26530   2.27367   2.27908
 Alpha virt. eigenvalues --    2.28729   2.31012   2.31345   2.32123   2.34672
 Alpha virt. eigenvalues --    2.35246   2.35983   2.40333   2.40746   2.41673
 Alpha virt. eigenvalues --    2.44102   2.46208   2.47557   2.48463   2.51184
 Alpha virt. eigenvalues --    2.52951   2.53156   2.54223   2.55699   2.55800
 Alpha virt. eigenvalues --    2.56540   2.57448   2.58054   2.60025   2.60095
 Alpha virt. eigenvalues --    2.62261   2.62486   2.63790   2.64262   2.64937
 Alpha virt. eigenvalues --    2.65606   2.67526   2.68055   2.68903   2.69086
 Alpha virt. eigenvalues --    2.69358   2.69877   2.69997   2.70260   2.70324
 Alpha virt. eigenvalues --    2.71582   2.72355   2.73294   2.75547   2.76675
 Alpha virt. eigenvalues --    2.77139   2.77267   2.77636   2.78238   2.78282
 Alpha virt. eigenvalues --    2.78931   2.79663   2.80743   2.82818   2.83420
 Alpha virt. eigenvalues --    2.83907   2.84662   2.86195   2.86588   2.86828
 Alpha virt. eigenvalues --    2.86967   2.87259   2.87788   2.88513   2.88953
 Alpha virt. eigenvalues --    2.89341   2.89736   2.92104   2.93303   2.94032
 Alpha virt. eigenvalues --    2.94513   2.96746   2.97150   3.03996   3.04759
 Alpha virt. eigenvalues --    3.05691   3.05938   3.05942   3.07894   3.09760
 Alpha virt. eigenvalues --    3.11028   3.11244   3.12303   3.12993   3.13292
 Alpha virt. eigenvalues --    3.14145   3.14307   3.15075   3.16107   3.16452
 Alpha virt. eigenvalues --    3.16494   3.18461   3.19060   3.19422   3.21745
 Alpha virt. eigenvalues --    3.22117   3.23163   3.25185   3.25397   3.25564
 Alpha virt. eigenvalues --    3.26086   3.27142   3.27287   3.27737   3.28214
 Alpha virt. eigenvalues --    3.29201   3.29494   3.31030   3.31874   3.33211
 Alpha virt. eigenvalues --    3.33748   3.33991   3.37123   3.37691   3.38521
 Alpha virt. eigenvalues --    3.38807   3.38900   3.39035   3.41761   3.42766
 Alpha virt. eigenvalues --    3.44873   3.45078   3.45680   3.46377   3.46878
 Alpha virt. eigenvalues --    3.48237   3.49629   3.50164   3.50805   3.51241
 Alpha virt. eigenvalues --    3.51478   3.52557   3.54047   3.54433   3.54476
 Alpha virt. eigenvalues --    3.54529   3.55012   3.57109   3.60354   3.60810
 Alpha virt. eigenvalues --    3.62405   3.62487   3.65404   3.69523   3.70759
 Alpha virt. eigenvalues --    3.72518   3.76234   3.76900   3.78379   3.79359
 Alpha virt. eigenvalues --    3.80307   3.80419   3.81656   3.82143   3.82825
 Alpha virt. eigenvalues --    3.86670   3.91905   3.93217   3.94132   3.95594
 Alpha virt. eigenvalues --    3.96416   4.01299   4.03757   4.03923   4.07875
 Alpha virt. eigenvalues --    4.08114   4.08331   4.09120   4.09295   4.13105
 Alpha virt. eigenvalues --    4.13583   4.13785   4.20361   4.20737   4.20779
 Alpha virt. eigenvalues --    4.21958   4.22014   4.22110   4.22703   4.25334
 Alpha virt. eigenvalues --    4.25689   4.27781   4.27896   4.29375   4.29493
 Alpha virt. eigenvalues --    4.30742   4.31684   4.33645   4.34098   4.35058
 Alpha virt. eigenvalues --    4.35687   4.40599   4.49464   4.51603   4.54181
 Alpha virt. eigenvalues --    4.59940   4.60110   4.62894   4.63094   4.64730
 Alpha virt. eigenvalues --    4.66024   4.66801   4.68688   4.69769   4.74629
 Alpha virt. eigenvalues --    4.75951   4.77115   4.85829   4.85958   4.88777
 Alpha virt. eigenvalues --    4.91425   4.93613   4.93745   4.99371   5.00282
 Alpha virt. eigenvalues --    5.06432   5.18442   5.19249   5.22536   5.23140
 Alpha virt. eigenvalues --    5.27717   5.28849   5.33768   5.33792   5.37963
 Alpha virt. eigenvalues --    5.39993   5.43725   5.46603   5.52516   5.54011
 Alpha virt. eigenvalues --    5.66734   5.69009   5.76473   5.83148   5.94470
 Alpha virt. eigenvalues --    5.95745   6.03631   6.04456   6.39993   6.42708
 Alpha virt. eigenvalues --    6.58459   6.58949   6.67186   6.68952   6.82712
 Alpha virt. eigenvalues --    6.83160   6.90956   6.91247   7.28403   7.29589
 Alpha virt. eigenvalues --    7.45657   7.45974  22.12954  22.17691  22.59718
 Alpha virt. eigenvalues --   22.65250  22.68302  22.68444  22.70424  22.71151
 Alpha virt. eigenvalues --   22.80423  22.80913  22.91462  22.91999  23.34843
 Alpha virt. eigenvalues --   23.35622  44.47341  44.50296
          Condensed to atoms (all electrons):
               1          2          3          4          5          6
     1  C    4.794242   0.382046   0.396050   0.375642  -0.028311  -0.016442
     2  H    0.382046   0.626938  -0.062024  -0.016442  -0.005854  -0.003065
     3  H    0.396050  -0.062024   0.611571  -0.028311   0.012155  -0.005854
     4  C    0.375642  -0.016442  -0.028311   4.794242   0.396050   0.382046
     5  H   -0.028311  -0.005854   0.012155   0.396050   0.611571  -0.062024
     6  H   -0.016442  -0.003065  -0.005854   0.382046  -0.062024   0.626938
     7  O    0.273387  -0.043739  -0.042585  -0.048319   0.005867   0.003674
     8  O   -0.048319   0.003674   0.005867   0.273387  -0.042585  -0.043739
     9  C   -0.054971  -0.008514  -0.010890   0.000676  -0.001288   0.000889
    10  C   -0.002897   0.001917   0.000566  -0.000653  -0.000241   0.000132
    11  C   -0.013078   0.010964   0.011349   0.001945  -0.000157   0.000408
    12  C    0.000183  -0.000147  -0.000070   0.000096   0.000071  -0.000024
    13  C   -0.000797  -0.000704  -0.000578  -0.000499   0.000044  -0.000064
    14  C   -0.000108   0.000004  -0.000051   0.000032  -0.000014   0.000009
    15  H   -0.001833   0.000166   0.000137  -0.000043  -0.000018   0.000033
    16  H    0.009318   0.001009   0.000800   0.001961  -0.000093   0.000332
    17  H    0.000058  -0.000001   0.000000  -0.000001   0.000000   0.000000
    18  H   -0.000106   0.000006   0.000000   0.000000   0.000000   0.000000
    19  H   -0.000009   0.000001   0.000001   0.000000   0.000000   0.000000
    20  C    0.000676   0.000889  -0.001288  -0.054971  -0.010890  -0.008514
    21  C    0.001945   0.000408  -0.000157  -0.013078   0.011349   0.010964
    22  C   -0.000653   0.000132  -0.000241  -0.002897   0.000566   0.001917
    23  C   -0.000499  -0.000064   0.000044  -0.000797  -0.000578  -0.000704
    24  C    0.000096  -0.000024   0.000071   0.000183  -0.000070  -0.000147
    25  C    0.000032   0.000009  -0.000014  -0.000108  -0.000051   0.000004
    26  H    0.001961   0.000332  -0.000093   0.009318   0.000800   0.001009
    27  H   -0.000043   0.000033  -0.000018  -0.001833   0.000137   0.000166
    28  H    0.000000   0.000000   0.000000  -0.000106   0.000000   0.000006
    29  H   -0.000001   0.000000   0.000000   0.000058   0.000000  -0.000001
    30  H    0.000000   0.000000   0.000000  -0.000009   0.000001   0.000001
               7          8          9         10         11         12
     1  C    0.273387  -0.048319  -0.054971  -0.002897  -0.013078   0.000183
     2  H   -0.043739   0.003674  -0.008514   0.001917   0.010964  -0.000147
     3  H   -0.042585   0.005867  -0.010890   0.000566   0.011349  -0.000070
     4  C   -0.048319   0.273387   0.000676  -0.000653   0.001945   0.000096
     5  H    0.005867  -0.042585  -0.001288  -0.000241  -0.000157   0.000071
     6  H    0.003674  -0.043739   0.000889   0.000132   0.000408  -0.000024
     7  O    7.813307  -0.004999   0.394783  -0.061490  -0.089272   0.003095
     8  O   -0.004999   7.813307   0.002535  -0.000009   0.000445  -0.000051
     9  C    0.394783   0.002535   4.871420   0.357545   0.190722   0.072568
    10  C   -0.061490  -0.000009   0.357545   5.067271   0.109946   0.439034
    11  C   -0.089272   0.000445   0.190722   0.109946   5.353434  -0.130688
    12  C    0.003095  -0.000051   0.072568   0.439034  -0.130688   4.873396
    13  C    0.009931  -0.000013   0.125403  -0.116817   0.300654   0.045578
    14  C   -0.000703   0.000006  -0.122965   0.039802   0.060713   0.451765
    15  H    0.009260   0.000168  -0.078616   0.443671   0.024270  -0.064887
    16  H   -0.006831   0.000024  -0.063704   0.006292   0.432927  -0.000816
    17  H   -0.000151   0.000000   0.016235  -0.060036  -0.004993   0.433948
    18  H   -0.000160   0.000000   0.004433   0.001093  -0.037232   0.006952
    19  H    0.000019   0.000000  -0.002758   0.011033   0.013112  -0.052563
    20  C    0.002535   0.394783   0.000305   0.000022   0.000034  -0.000005
    21  C    0.000445  -0.089272   0.000034  -0.000005   0.000017   0.000000
    22  C   -0.000009  -0.061490   0.000022   0.000008  -0.000005   0.000001
    23  C   -0.000013   0.009931  -0.000005   0.000000   0.000000   0.000000
    24  C   -0.000051   0.003095  -0.000005   0.000001   0.000000   0.000000
    25  C    0.000006  -0.000703   0.000001   0.000000   0.000000   0.000000
    26  H    0.000024  -0.006831   0.000009   0.000000   0.000004   0.000000
    27  H    0.000168   0.009260   0.000037  -0.000005   0.000005  -0.000001
    28  H    0.000000  -0.000160   0.000000   0.000000   0.000000   0.000000
    29  H    0.000000  -0.000151   0.000000   0.000000   0.000000   0.000000
    30  H    0.000000   0.000019   0.000000   0.000000   0.000000   0.000000
              13         14         15         16         17         18
     1  C   -0.000797  -0.000108  -0.001833   0.009318   0.000058  -0.000106
     2  H   -0.000704   0.000004   0.000166   0.001009  -0.000001   0.000006
     3  H   -0.000578  -0.000051   0.000137   0.000800   0.000000   0.000000
     4  C   -0.000499   0.000032  -0.000043   0.001961  -0.000001   0.000000
     5  H    0.000044  -0.000014  -0.000018  -0.000093   0.000000   0.000000
     6  H   -0.000064   0.000009   0.000033   0.000332   0.000000   0.000000
     7  O    0.009931  -0.000703   0.009260  -0.006831  -0.000151  -0.000160
     8  O   -0.000013   0.000006   0.000168   0.000024   0.000000   0.000000
     9  C    0.125403  -0.122965  -0.078616  -0.063704   0.016235   0.004433
    10  C   -0.116817   0.039802   0.443671   0.006292  -0.060036   0.001093
    11  C    0.300654   0.060713   0.024270   0.432927  -0.004993  -0.037232
    12  C    0.045578   0.451765  -0.064887  -0.000816   0.433948   0.006952
    13  C    4.996330   0.464036  -0.007273  -0.039474   0.013901   0.406500
    14  C    0.464036   4.895914   0.016115   0.007538  -0.058800  -0.040761
    15  H   -0.007273   0.016115   0.554672  -0.000100  -0.010685   0.000093
    16  H   -0.039474   0.007538  -0.000100   0.533582   0.000050  -0.006435
    17  H    0.013901  -0.058800  -0.010685   0.000050   0.563231  -0.000380
    18  H    0.406500  -0.040761   0.000093  -0.006435  -0.000380   0.557423
    19  H   -0.053055   0.425893  -0.000168  -0.000263  -0.007971  -0.007617
    20  C   -0.000005   0.000001   0.000037   0.000009   0.000000   0.000000
    21  C    0.000000   0.000000   0.000005   0.000004   0.000000   0.000000
    22  C    0.000000   0.000000  -0.000005   0.000000   0.000000   0.000000
    23  C    0.000000   0.000000   0.000000   0.000000   0.000000   0.000000
    24  C    0.000000   0.000000  -0.000001   0.000000   0.000000   0.000000
    25  C    0.000000   0.000000   0.000000   0.000000   0.000000   0.000000
    26  H    0.000000   0.000000   0.000001   0.000000   0.000000   0.000000
    27  H    0.000000   0.000000   0.000006   0.000001   0.000000   0.000000
    28  H    0.000000   0.000000   0.000000   0.000000   0.000000   0.000000
    29  H    0.000000   0.000000   0.000000   0.000000   0.000000   0.000000
    30  H    0.000000   0.000000   0.000000   0.000000   0.000000   0.000000
              19         20         21         22         23         24
     1  C   -0.000009   0.000676   0.001945  -0.000653  -0.000499   0.000096
     2  H    0.000001   0.000889   0.000408   0.000132  -0.000064  -0.000024
     3  H    0.000001  -0.001288  -0.000157  -0.000241   0.000044   0.000071
     4  C    0.000000  -0.054971  -0.013078  -0.002897  -0.000797   0.000183
     5  H    0.000000  -0.010890   0.011349   0.000566  -0.000578  -0.000070
     6  H    0.000000  -0.008514   0.010964   0.001917  -0.000704  -0.000147
     7  O    0.000019   0.002535   0.000445  -0.000009  -0.000013  -0.000051
     8  O    0.000000   0.394783  -0.089272  -0.061490   0.009931   0.003095
     9  C   -0.002758   0.000305   0.000034   0.000022  -0.000005  -0.000005
    10  C    0.011033   0.000022  -0.000005   0.000008   0.000000   0.000001
    11  C    0.013112   0.000034   0.000017  -0.000005   0.000000   0.000000
    12  C   -0.052563  -0.000005   0.000000   0.000001   0.000000   0.000000
    13  C   -0.053055  -0.000005   0.000000   0.000000   0.000000   0.000000
    14  C    0.425893   0.000001   0.000000   0.000000   0.000000   0.000000
    15  H   -0.000168   0.000037   0.000005  -0.000005   0.000000  -0.000001
    16  H   -0.000263   0.000009   0.000004   0.000000   0.000000   0.000000
    17  H   -0.007971   0.000000   0.000000   0.000000   0.000000   0.000000
    18  H   -0.007617   0.000000   0.000000   0.000000   0.000000   0.000000
    19  H    0.560303   0.000000   0.000000   0.000000   0.000000   0.000000
    20  C    0.000000   4.871420   0.190722   0.357545   0.125403   0.072568
    21  C    0.000000   0.190722   5.353434   0.109946   0.300654  -0.130688
    22  C    0.000000   0.357545   0.109946   5.067271  -0.116817   0.439034
    23  C    0.000000   0.125403   0.300654  -0.116817   4.996330   0.045578
    24  C    0.000000   0.072568  -0.130688   0.439034   0.045578   4.873396
    25  C    0.000000  -0.122965   0.060713   0.039802   0.464036   0.451765
    26  H    0.000000  -0.063704   0.432927   0.006292  -0.039474  -0.000816
    27  H    0.000000  -0.078616   0.024270   0.443671  -0.007273  -0.064887
    28  H    0.000000   0.004433  -0.037232   0.001093   0.406500   0.006952
    29  H    0.000000   0.016235  -0.004993  -0.060036   0.013901   0.433948
    30  H    0.000000  -0.002758   0.013112   0.011033  -0.053055  -0.052563
              25         26         27         28         29         30
     1  C    0.000032   0.001961  -0.000043   0.000000  -0.000001   0.000000
     2  H    0.000009   0.000332   0.000033   0.000000   0.000000   0.000000
     3  H   -0.000014  -0.000093  -0.000018   0.000000   0.000000   0.000000
     4  C   -0.000108   0.009318  -0.001833  -0.000106   0.000058  -0.000009
     5  H   -0.000051   0.000800   0.000137   0.000000   0.000000   0.000001
     6  H    0.000004   0.001009   0.000166   0.000006  -0.000001   0.000001
     7  O    0.000006   0.000024   0.000168   0.000000   0.000000   0.000000
     8  O   -0.000703  -0.006831   0.009260  -0.000160  -0.000151   0.000019
     9  C    0.000001   0.000009   0.000037   0.000000   0.000000   0.000000
    10  C    0.000000   0.000000  -0.000005   0.000000   0.000000   0.000000
    11  C    0.000000   0.000004   0.000005   0.000000   0.000000   0.000000
    12  C    0.000000   0.000000  -0.000001   0.000000   0.000000   0.000000
    13  C    0.000000   0.000000   0.000000   0.000000   0.000000   0.000000
    14  C    0.000000   0.000000   0.000000   0.000000   0.000000   0.000000
    15  H    0.000000   0.000001   0.000006   0.000000   0.000000   0.000000
    16  H    0.000000   0.000000   0.000001   0.000000   0.000000   0.000000
    17  H    0.000000   0.000000   0.000000   0.000000   0.000000   0.000000
    18  H    0.000000   0.000000   0.000000   0.000000   0.000000   0.000000
    19  H    0.000000   0.000000   0.000000   0.000000   0.000000   0.000000
    20  C   -0.122965  -0.063704  -0.078616   0.004433   0.016235  -0.002758
    21  C    0.060713   0.432927   0.024270  -0.037232  -0.004993   0.013112
    22  C    0.039802   0.006292   0.443671   0.001093  -0.060036   0.011033
    23  C    0.464036  -0.039474  -0.007273   0.406500   0.013901  -0.053055
    24  C    0.451765  -0.000816  -0.064887   0.006952   0.433948  -0.052563
    25  C    4.895914   0.007538   0.016115  -0.040761  -0.058800   0.425893
    26  H    0.007538   0.533582  -0.000100  -0.006435   0.000050  -0.000263
    27  H    0.016115  -0.000100   0.554672   0.000093  -0.010685  -0.000168
    28  H   -0.040761  -0.006435   0.000093   0.557423  -0.000380  -0.007617
    29  H   -0.058800   0.000050  -0.010685  -0.000380   0.563231  -0.007971
    30  H    0.425893  -0.000263  -0.000168  -0.007617  -0.007971   0.560303
 Mulliken charges:
               1
     1  C   -0.067568
     2  H    0.112050
     3  H    0.113562
     4  C   -0.067568
     5  H    0.113562
     6  H    0.112050
     7  O   -0.218178
     8  O   -0.218178
     9  C    0.306100
    10  C   -0.236181
    11  C   -0.235523
    12  C   -0.077435
    13  C   -0.143097
    14  C   -0.138429
    15  H    0.114997
    16  H    0.123870
    17  H    0.115597
    18  H    0.116191
    19  H    0.114043
    20  C    0.306100
    21  C   -0.235523
    22  C   -0.236181
    23  C   -0.143097
    24  C   -0.077435
    25  C   -0.138429
    26  H    0.123870
    27  H    0.114997
    28  H    0.116191
    29  H    0.115597
    30  H    0.114043
 Sum of Mulliken charges =   0.00000
 Mulliken charges with hydrogens summed into heavy atoms:
               1
     1  C    0.158044
     4  C    0.158044
     7  O   -0.218178
     8  O   -0.218178
     9  C    0.306100
    10  C   -0.121184
    11  C   -0.111653
    12  C    0.038163
    13  C   -0.026906
    14  C   -0.024386
    20  C    0.306100
    21  C   -0.111653
    22  C   -0.121184
    23  C   -0.026906
    24  C    0.038163
    25  C   -0.024386
 APT charges:
               1
     1  C    0.549382
     2  H   -0.049882
     3  H   -0.027362
     4  C    0.549382
     5  H   -0.027362
     6  H   -0.049882
     7  O   -0.972599
     8  O   -0.972599
     9  C    0.697887
    10  C   -0.177801
    11  C   -0.205586
    12  C    0.061806
    13  C    0.062259
    14  C   -0.160562
    15  H    0.060087
    16  H    0.059099
    17  H    0.034168
    18  H    0.031566
    19  H    0.037537
    20  C    0.697887
    21  C   -0.205586
    22  C   -0.177801
[...]
    12  C   -0.077436
    13  C   -0.143110
    14  C   -0.138409
    15  H    0.115008
    16  H    0.123893
    17  H    0.115603
    18  H    0.116199
    19  H    0.114051
    20  C    0.306135
    21  C   -0.235539
    22  C   -0.236176
    23  C   -0.143092
    24  C   -0.077438
    25  C   -0.138433
    26  H    0.123869
    27  H    0.114988
    28  H    0.116187
    29  H    0.115592
    30  H    0.114038
 Sum of Mulliken charges =   0.00000
 Mulliken charges with hydrogens summed into heavy atoms:
               1
     1  C    0.158242
     4  C    0.157705
     7  O   -0.218097
     8  O   -0.218208
     9  C    0.306129
    10  C   -0.121185
    11  C   -0.111614
    12  C    0.038168
    13  C   -0.026911
    14  C   -0.024359
    20  C    0.306135
    21  C   -0.111670
    22  C   -0.121187
    23  C   -0.026906
    24  C    0.038154
    25  C   -0.024395
 APT charges:
               1
     1  C    0.549199
     2  H   -0.049852
     3  H   -0.027369
     4  C    0.549526
     5  H   -0.027480
     6  H   -0.049993
     7  O   -0.972223
     8  O   -0.972648
     9  C    0.697673
    10  C   -0.177731
    11  C   -0.205567
    12  C    0.061765
    13  C    0.062227
    14  C   -0.160498
    15  H    0.060086
    16  H    0.059148
    17  H    0.034175
    18  H    0.031575
    19  H    0.037542
    20  C    0.697890
    21  C   -0.205589
    22  C   -0.177804
    23  C    0.062265
    24  C    0.061805
    25  C   -0.160572
    26  H    0.059112
    27  H    0.060082
    28  H    0.031562
    29  H    0.034163
    30  H    0.037532
 Sum of APT charges =   0.00000
 APT charges with hydrogens summed into heavy atoms:
               1
     1  C    0.471978
     4  C    0.472053
     7  O   -0.972223
     8  O   -0.972648
     9  C    0.697673
    10  C   -0.117645
    11  C   -0.146420
    12  C    0.095939
    13  C    0.093802
    14  C   -0.122956
    20  C    0.697890
    21  C   -0.146477
    22  C   -0.117722
    23  C    0.093827
    24  C    0.095968
    25  C   -0.123040
 Electronic spatial extent (au):  <R**2>=           6084.6389
 Charge=              0.0000 electrons
 Dipole moment (field-independent basis, Debye):
    X=             -0.0004    Y=              0.0033    Z=             -1.7131  Tot=              1.7131
 Quadrupole moment (field-independent basis, Debye-Ang):
   XX=            -94.9516   YY=            -88.6713   ZZ=            -86.8201
   XY=              3.3438   XZ=             -0.0001   YZ=             -0.0004
 Traceless Quadrupole moment (field-independent basis, Debye-Ang):
   XX=             -4.8039   YY=              1.4764   ZZ=              3.3275
   XY=              3.3438   XZ=             -0.0001   YZ=             -0.0004
 Octapole moment (field-independent basis, Debye-Ang**2):
  XXX=             -0.0002  YYY=              0.0417  ZZZ=             -5.9606  XYY=              0.0007
  XXY=             -0.0002  XXZ=             -1.3019  XZZ=             -0.0012  YZZ=              0.0035
  YYZ=             17.0712  XYZ=            -29.5365
 Hexadecapole moment (field-independent basis, Debye-Ang**3):
 XXXX=           -339.2909 YYYY=          -7031.9124 ZZZZ=           -627.2754 XXXY=             35.9594
 XXXZ=             -0.0022 YYYX=            166.0713 YYYZ=              0.0410 ZZZX=             -0.0002
 ZZZY=              0.0140 XXYY=          -1360.6668 XXZZ=           -146.2069 YYZZ=          -1309.3343
 XXYZ=              0.0064 YYXZ=             -0.0047 ZZXY=            -13.0586
 N-N= 9.762153368381D+02 E-N=-3.563841631472D+03  KE= 6.886278373393D+02
  Exact polarizability: 122.306  11.432 232.413   0.000  -0.002 150.745
 Approx polarizability: 198.077  24.263 299.389  -0.001  -0.004 240.331
 No NMR shielding tensors so no spin-rotation constants.
 Leave Link  601 at Tue Jul  2 17:18:25 2024, MaxMem=  8388608000 cpu:        27.6
 (Enter /home/madghost/g09/l701.exe)
 Compute integral second derivatives.
 ... and contract with generalized density number  0.
 R6Disp: Adding Grimme-D3(BJ) dispersion energy 2nd derivatives to the Hessian.
   1 Symmetry operations used in ECPInt.
 ECPInt:  NShTT=   27028 NPrTT=   82204 LenC2=   22813 LenP2D=   50428.
 LDataN:  DoStor=T MaxTD1= 8 Len=  415
 Leave Link  701 at Tue Jul  2 17:18:26 2024, MaxMem=  8388608000 cpu:        25.9
 (Enter /home/madghost/g09/l702.exe)
 L702 exits ... SP integral derivatives will be done elsewhere.
 Leave Link  702 at Tue Jul  2 17:18:26 2024, MaxMem=  8388608000 cpu:         0.5
 (Enter /home/madghost/g09/l703.exe)
 Compute integral second derivatives, UseDBF=F ICtDFT=           0.
 Integral derivatives from FoFJK, PRISM(SPDF).
 Calling FoFJK, ICntrl=    100127 FMM=F ISym2X=0 I1Cent= 0 IOpClX= 0 NMat=1 NMatS=1 NMatT=0.
 FoFJK:  IHMeth= 1 ICntrl=  100127 DoSepK=F KAlg= 0 I1Cent=   0 FoldK=F
 IRaf=         0 NMat=   1 IRICut=       1 DoRegI=T DoRafI=F ISym2E= 0.
 FoFCou: FMM=F IPFlag=           0 FMFlag=      100000 FMFlg1=         800
         NFxFlg=           0 DoJE=F BraDBF=F KetDBF=F FulRan=T
         wScrn=  0.000000 ICntrl=  100127 IOpCl=  0 I1Cent=           0 NGrid=           0
         NMat0=    1 NMatS0=      1 NMatT0=    0 NMatD0=    1 NMtDS0=    0 NMtDT0=    0
 Symmetry not used in FoFCou.
 Leave Link  703 at Tue Jul  2 17:28:08 2024, MaxMem=  8388608000 cpu:     18637.3
 (Enter /home/madghost/g09/l716.exe)
 Dipole        =-1.50956982D-04 1.31282977D-03-6.73975129D-01
 Polarizability= 1.22306324D+02 1.14321182D+01 2.32412702D+02
                -4.75540945D-04-2.16736416D-03 1.50745095D+02
 -------------------------------------------------------------------
 Center     Atomic                   Forces (Hartrees/Bohr)
 Number     Number              X              Y              Z
 -------------------------------------------------------------------
      1        6          -0.000031813   -0.001019110    0.000079141
      2        1          -0.000065411    0.000184133   -0.000171891
      3        1           0.000054857    0.000099249    0.000006055
      4        6           0.000085350    0.000390681   -0.000023424
      5        1           0.000003035    0.000010429    0.000004003
      6        1           0.000008362    0.000016940    0.000001425
      7        8          -0.000016778    0.000189053    0.000053353
      8        8          -0.000001370    0.000048283   -0.000019325
      9        6          -0.000037288    0.000072455    0.000069420
     10        6           0.000006608    0.000004023   -0.000005859
     11        6          -0.000001188   -0.000003941   -0.000000046
     12        6          -0.000000679    0.000001502    0.000002902
     13        6          -0.000000616    0.000000764    0.000003582
     14        6           0.000000540   -0.000002587   -0.000001243
     15        1          -0.000000387   -0.000000039    0.000000401
     16        1          -0.000000453    0.000006164    0.000003955
     17        1           0.000000420    0.000000608    0.000000166
     18        1           0.000000211   -0.000000787   -0.000000093
     19        1           0.000000444    0.000000274   -0.000000176
     20        6           0.000000712    0.000003285   -0.000003301
     21        6          -0.000001266    0.000000644   -0.000000926
     22        6          -0.000000310   -0.000000796   -0.000000326
     23        6          -0.000000775    0.000000584    0.000001163
     24        6          -0.000000333   -0.000000122   -0.000000403
     25        6          -0.000000854   -0.000000124   -0.000000813
     26        1           0.000000384   -0.000000952    0.000002025
     27        1          -0.000000206    0.000000127   -0.000000025
     28        1          -0.000000434   -0.000000111   -0.000000096
     29        1          -0.000000211   -0.000000219    0.000000452
     30        1          -0.000000550   -0.000000410   -0.000000099
 -------------------------------------------------------------------
 Cartesian Forces:  Max     0.001019110 RMS     0.000122053
 Leave Link  716 at Tue Jul  2 17:28:09 2024, MaxMem=  8388608000 cpu:         0.8
 (Enter /home/madghost/g09/l106.exe)
 NDeriv=  90 NFrqRd=  0 NDerD0=   0 MskFDP=       0 MskDFD=       0 MskDF0=       0
 Re-enter D2Numr: IAtom=  1 IXYZ=2 IStep= 1.
 Leave Link  106 at Tue Jul  2 17:28:09 2024, MaxMem=  8388608000 cpu:         4.8
 (Enter /home/madghost/g09/l301.exe)
 Standard basis: def2TZVP (5D, 7F)
 Ernie: Thresh=  0.10000D-02 Tol=  0.10000D-05 Strict=F.
   580 basis functions,   928 primitive gaussians,   660 cartesian basis functions
    57 alpha electrons       57 beta electrons
       nuclear repulsion energy       976.2478016534 Hartrees.
 IExCor= 1009 DFT=T Ex+Corr=PBE1PBE ExCW=0 ScaHFX=  0.250000
 ScaDFX=  0.750000  0.750000  1.000000  1.000000 ScalE2=  1.000000  1.000000
 IRadAn=      5 IRanWt=     -1 IRanGd=            0 ICorTp=0 IEmpDi=141
 NAtoms=   30 NActive=   30 NUniq=   30 SFac= 1.00D+00 NAtFMM=   60 NAOKFM=F Big=F
 Integral buffers will be    131072 words long.
 Raffenetti 2 integral format.
 Two-electron integral symmetry is turned off.
 R6Disp:  Grimme-D3(BJ) Dispersion energy=       -0.0283958909 Hartrees.
 Nuclear repulsion after empirical dispersion term =      976.2194057625 Hartrees.
 Leave Link  301 at Tue Jul  2 17:28:11 2024, MaxMem=  8388608000 cpu:         1.8
 (Enter /home/madghost/g09/l302.exe)
 NPDir=0 NMtPBC=     1 NCelOv=     1 NCel=       1 NClECP=     1 NCelD=      1
         NCelK=      1 NCelE2=     1 NClLst=     1 CellRange=     0.0.
 One-electron integrals computed using PRISM.
   1 Symmetry operations used in ECPInt.
 ECPInt:  NShTT=   27028 NPrTT=   82204 LenC2=   22813 LenP2D=   50428.
 LDataN:  DoStor=T MaxTD1= 6 Len=  172
 NBasis=   580 RedAO= T EigKep=  8.70D-06  NBF=   580
 NBsUse=   580 1.00D-06 EigRej= -1.00D+00 NBFU=   580
 Precomputing XC quadrature grid using
 IXCGrd= 4 IRadAn=           5 IRanWt=          -1 IRanGd=           0 AccXCQ= 0.00D+00.
 Generated NRdTot=       0 NPtTot=           0 NUsed=           0 NTot=          32
 NSgBfM=   637   637   637   637   637 MxSgAt=    30 MxSgA2=    30.
 Leave Link  302 at Tue Jul  2 17:28:12 2024, MaxMem=  8388608000 cpu:        47.5
 (Enter /home/madghost/g09/l303.exe)
 DipDrv:  MaxL=1.
 Leave Link  303 at Tue Jul  2 17:28:13 2024, MaxMem=  8388608000 cpu:         3.7
 (Enter /home/madghost/g09/l401.exe)
 Initial guess from the checkpoint file:  "118.chk"
 B after Tr=     0.000000   -0.000199    0.000000
         Rot=    1.000000    0.000005    0.000000    0.000001 Ang=   0.00 deg.
 Guess basis will be translated and rotated to current coordinates.
 JPrj=2 DoOrth=T DoCkMO=T.
 Leave Link  401 at Tue Jul  2 17:28:14 2024, MaxMem=  8388608000 cpu:        43.3
 (Enter /home/madghost/g09/l502.exe)
 Closed shell SCF:
 Using DIIS extrapolation, IDIIS=  1040.
 Two-electron integral symmetry not used.
 IVT=     1350490 IEndB=     1350490 NGot=  8388608000 MDV=  8387710411
 LenX=  8387710411 LenY=  8387274151
 Requested convergence on RMS density matrix=1.00D-08 within 128 cycles.
 Requested convergence on MAX density matrix=1.00D-06.
 Requested convergence on             energy=1.00D-06.
 No special actions if energy rises.
 Fock matrices will be formed incrementally for  20 cycles.

 Cycle   1  Pass 1  IDiag  1:
 FoFJK:  IHMeth= 1 ICntrl=       0 DoSepK=F KAlg= 0 I1Cent=   0 FoldK=F
 IRaf= 750000000 NMat=   1 IRICut=       1 DoRegI=T DoRafI=F ISym2E= 0.
 FoFCou: FMM=F IPFlag=           0 FMFlag=      100000 FMFlg1=           0
         NFxFlg=           0 DoJE=F BraDBF=F KetDBF=F FulRan=T
         wScrn=  0.000000 ICntrl=       0 IOpCl=  0 I1Cent=           0 NGrid=           0
         NMat0=    1 NMatS0=      1 NMatT0=    0 NMatD0=    1 NMtDS0=    0 NMtDT0=    0
 Symmetry not used in FoFCou.
 E= -691.820199539497    
 DIIS: error= 5.45D-05 at cycle   1 NSaved=   1.
 NSaved= 1 IEnMin= 1 EnMin= -691.820199539497     IErMin= 1 ErrMin= 5.45D-05
 ErrMax= 5.45D-05  0.00D+00 EMaxC= 1.00D-01 BMatC= 1.98D-06 BMatP= 1.98D-06
 IDIUse=1 WtCom= 1.00D+00 WtEn= 0.00D+00
 Coeff-Com:  0.100D+01
 Coeff:      0.100D+01
 Gap=     0.741 Goal=   None    Shift=    0.000
 RMSDP=5.14D-06 MaxDP=1.74D-04              OVMax= 2.45D-04

 Cycle   2  Pass 1  IDiag  1:
 RMSU=  5.14D-06    CP:  1.00D+00
 E= -691.820201368695     Delta-E=       -0.000001829198 Rises=F Damp=F
 DIIS: error= 1.26D-05 at cycle   2 NSaved=   2.
 NSaved= 2 IEnMin= 2 EnMin= -691.820201368695     IErMin= 2 ErrMin= 1.26D-05
 ErrMax= 1.26D-05  0.00D+00 EMaxC= 1.00D-01 BMatC= 2.32D-07 BMatP= 1.98D-06
 IDIUse=1 WtCom= 1.00D+00 WtEn= 0.00D+00
 Coeff-Com:  0.138D+00 0.862D+00
 Coeff:      0.138D+00 0.862D+00
 Gap=     0.228 Goal=   None    Shift=    0.000
 RMSDP=2.24D-06 MaxDP=2.00D-04 DE=-1.83D-06 OVMax= 1.53D-04

 Cycle   3  Pass 1  IDiag  1:
 RMSU=  2.13D-06    CP:  1.00D+00  8.93D-01
 E= -691.820201324797     Delta-E=        0.000000043898 Rises=F Damp=F
 DIIS: error= 1.44D-05 at cycle   3 NSaved=   3.
 NSaved= 3 IEnMin= 2 EnMin= -691.820201368695     IErMin= 2 ErrMin= 1.26D-05
 ErrMax= 1.44D-05  0.00D+00 EMaxC= 1.00D-01 BMatC= 2.95D-07 BMatP= 2.32D-07
 IDIUse=1 WtCom= 1.00D+00 WtEn= 0.00D+00
 Coeff-Com: -0.133D-01 0.534D+00 0.479D+00
 Coeff:     -0.133D-01 0.534D+00 0.479D+00
 Gap=     0.228 Goal=   None    Shift=    0.000
 RMSDP=1.64D-06 MaxDP=1.57D-04 DE= 4.39D-08 OVMax= 1.19D-04

 Cycle   4  Pass 1  IDiag  1:
 RMSU=  4.95D-07    CP:  1.00D+00  9.92D-01  3.25D-01
 E= -691.820201534570     Delta-E=       -0.000000209773 Rises=F Damp=F
 DIIS: error= 3.74D-06 at cycle   4 NSaved=   4.
 NSaved= 4 IEnMin= 4 EnMin= -691.820201534570     IErMin= 4 ErrMin= 3.74D-06
 ErrMax= 3.74D-06  0.00D+00 EMaxC= 1.00D-01 BMatC= 9.23D-09 BMatP= 2.32D-07
 IDIUse=1 WtCom= 1.00D+00 WtEn= 0.00D+00
 Coeff-Com: -0.120D-01 0.216D+00 0.242D+00 0.554D+00
 Coeff:     -0.120D-01 0.216D+00 0.242D+00 0.554D+00
 Gap=     0.228 Goal=   None    Shift=    0.000
 RMSDP=4.10D-07 MaxDP=3.73D-05 DE=-2.10D-07 OVMax= 3.37D-05

 Cycle   5  Pass 1  IDiag  1:
 RMSU=  1.90D-07    CP:  1.00D+00  9.94D-01  4.62D-01  6.09D-01
 E= -691.820201542064     Delta-E=       -0.000000007494 Rises=F Damp=F
 DIIS: error= 1.72D-06 at cycle   5 NSaved=   5.
 NSaved= 5 IEnMin= 5 EnMin= -691.820201542064     IErMin= 5 ErrMin= 1.72D-06
 ErrMax= 1.72D-06  0.00D+00 EMaxC= 1.00D-01 BMatC= 9.50D-10 BMatP= 9.23D-09
 IDIUse=1 WtCom= 1.00D+00 WtEn= 0.00D+00
 Coeff-Com: -0.448D-02 0.568D-01 0.772D-01 0.298D+00 0.573D+00
 Coeff:     -0.448D-02 0.568D-01 0.772D-01 0.298D+00 0.573D+00
 Gap=     0.228 Goal=   None    Shift=    0.000
 RMSDP=8.60D-08 MaxDP=6.13D-06 DE=-7.49D-09 OVMax= 1.10D-05

 Cycle   6  Pass 1  IDiag  1:
 RMSU=  3.90D-08    CP:  1.00D+00  9.94D-01  4.39D-01  6.60D-01  7.40D-01
 E= -691.820201543069     Delta-E=       -0.000000001006 Rises=F Damp=F
 DIIS: error= 5.95D-07 at cycle   6 NSaved=   6.
 NSaved= 6 IEnMin= 6 EnMin= -691.820201543069     IErMin= 6 ErrMin= 5.95D-07
 ErrMax= 5.95D-07  0.00D+00 EMaxC= 1.00D-01 BMatC= 8.26D-11 BMatP= 9.50D-10
 IDIUse=1 WtCom= 1.00D+00 WtEn= 0.00D+00
 Coeff-Com: -0.159D-02 0.150D-01 0.249D-01 0.124D+00 0.313D+00 0.525D+00
 Coeff:     -0.159D-02 0.150D-01 0.249D-01 0.124D+00 0.313D+00 0.525D+00
 Gap=     0.228 Goal=   None    Shift=    0.000
 RMSDP=1.65D-08 MaxDP=7.20D-07 DE=-1.01D-09 OVMax= 3.31D-06

 Cycle   7  Pass 1  IDiag  1:
 RMSU=  1.13D-08    CP:  1.00D+00  9.94D-01  4.38D-01  6.69D-01  7.66D-01
                    CP:  7.56D-01
 E= -691.820201543103     Delta-E=       -0.000000000034 Rises=F Damp=F
 DIIS: error= 1.52D-07 at cycle   7 NSaved=   7.
 NSaved= 7 IEnMin= 7 EnMin= -691.820201543103     IErMin= 7 ErrMin= 1.52D-07
 ErrMax= 1.52D-07  0.00D+00 EMaxC= 1.00D-01 BMatC= 7.47D-12 BMatP= 8.26D-11
 IDIUse=1 WtCom= 1.00D+00 WtEn= 0.00D+00
 Coeff-Com: -0.171D-03-0.102D-02 0.130D-02 0.220D-01 0.830D-01 0.271D+00
 Coeff-Com:  0.624D+00
 Coeff:     -0.171D-03-0.102D-02 0.130D-02 0.220D-01 0.830D-01 0.271D+00
 Coeff:      0.624D+00
 Gap=     0.228 Goal=   None    Shift=    0.000
 RMSDP=5.65D-09 MaxDP=2.76D-07 DE=-3.37D-11 OVMax= 6.45D-07

 SCF Done:  E(RPBE1PBE) =  -691.820201543     A.U. after    7 cycles
            NFock=  7  Conv=0.57D-08     -V/T= 2.0046
 KE= 6.886279586229D+02 PE=-3.563850285023D+03 EE= 1.207182719095D+03
 Leave Link  502 at Tue Jul  2 17:30:22 2024, MaxMem=  8388608000 cpu:      4091.4
 (Enter /home/madghost/g09/l801.exe)
 DoSCS=F DFT=T ScalE2(SS,OS)=  1.000000  1.000000
 Range of M.O.s used for correlation:     1   580
 NBasis=   580 NAE=    57 NBE=    57 NFC=     0 NFV=     0
 NROrb=    580 NOA=    57 NOB=    57 NVA=   523 NVB=   523

 **** Warning!!: The largest alpha MO coefficient is  0.45555070D+02

 Leave Link  801 at Tue Jul  2 17:30:23 2024, MaxMem=  8388608000 cpu:         0.8
 (Enter /home/madghost/g09/l1101.exe)
 Using compressed storage, NAtomX=    30.
 Will process     31 centers per pass.
   1 Symmetry operations used in ECPInt.
 ECPInt:  NShTT=   27028 NPrTT=   82204 LenC2=   22813 LenP2D=   50428.
 LDataN:  DoStor=T MaxTD1= 7 Len=  274
 Number of processors reduced to  20 by ecpmxn.
 R6Disp: Adding Grimme-D3(BJ) dispersion energy 1st derivatives to the gradient.
 Leave Link 1101 at Tue Jul  2 17:30:26 2024, MaxMem=  8388608000 cpu:        88.0
 (Enter /home/madghost/g09/l1102.exe)
 Symmetrizing basis deriv contribution to polar:
 IMax=3 JMax=2 DiffMx= 0.00D+00
 Leave Link 1102 at Tue Jul  2 17:30:26 2024, MaxMem=  8388608000 cpu:         3.6
 (Enter /home/madghost/g09/l1110.exe)
 Forming Gx(P) for the SCF density, NAtomX=    30.
 Integral derivatives from FoFJK, PRISM(SPDF).
 Do as many integral derivatives as possible in FoFJK.
 G2DrvN: MDV=    8388607656.
 G2DrvN: will do    31 centers at a time, making    1 passes.
 Calling FoFCou, ICntrl=  3107 FMM=F I1Cent=   0 AccDes= 0.00D+00.
 FoFJK:  IHMeth= 1 ICntrl=    3107 DoSepK=F KAlg= 0 I1Cent=   0 FoldK=F
 IRaf=         0 NMat=   1 IRICut=       1 DoRegI=T DoRafI=F ISym2E= 0.
 FoFCou: FMM=F IPFlag=           0 FMFlag=      100000 FMFlg1=           0
         NFxFlg=           0 DoJE=F BraDBF=F KetDBF=F FulRan=T
         wScrn=  0.000000 ICntrl=    3107 IOpCl=  0 I1Cent=           0 NGrid=           0
         NMat0=    1 NMatS0=      1 NMatT0=    0 NMatD0=    1 NMtDS0=    0 NMtDT0=    0
 Symmetry not used in FoFCou.
 End of G2Drv F.D. properties file   721 does not exist.
 End of G2Drv F.D. properties file   722 does not exist.
 End of G2Drv F.D. properties file   788 does not exist.
 Leave Link 1110 at Tue Jul  2 17:36:18 2024, MaxMem=  8388608000 cpu:     11255.3
 (Enter /home/madghost/g09/l1002.exe)
 Minotr:  Closed shell wavefunction.
          IDoAtm=111111111111111111111111111111
          Direct CPHF calculation.
          Differentiating once with respect to electric field.
                with respect to dipole field.
          Differentiating once with respect to nuclear coordinates.
          Requested convergence is 1.0D-08 RMS, and 1.0D-07 maximum.
          Secondary convergence is 1.0D-12 RMS, and 1.0D-12 maximum.
          NewPWx=T KeepS1=F KeepF1=F KeepIn=T MapXYZ=F SortEE=F KeepMc=T.
          MDV=    8388607116 using IRadAn=       1.
 Generate precomputed XC quadrature information.
          Solving linear equations simultaneously, MaxMat=       0.
 FoFJK:  IHMeth= 1 ICntrl=       0 DoSepK=F KAlg= 0 I1Cent=   0 FoldK=F
 IRaf= 750000000 NMat=  93 IRICut=     232 DoRegI=T DoRafI=T ISym2E= 0.
 FoFCou: FMM=F IPFlag=           0 FMFlag=      100000 FMFlg1=           0
         NFxFlg=           0 DoJE=F BraDBF=F KetDBF=F FulRan=T
         wScrn=  0.000000 ICntrl=       0 IOpCl=  0 I1Cent=           0 NGrid=           0
         NMat0=   93 NMatS0=     93 NMatT0=    0 NMatD0=   93 NMtDS0=    0 NMtDT0=    0
 Symmetry not used in FoFCou.
          There are    93 degrees of freedom in the 1st order CPHF.  IDoFFX=6 NUNeed=     3.
     90 vectors produced by pass  0 Test12= 3.21D-14 1.08D-09 XBig12= 2.01D+02 6.82D+00.
 AX will form    90 AO Fock derivatives at one time.
     90 vectors produced by pass  1 Test12= 3.21D-14 1.08D-09 XBig12= 3.94D+01 9.21D-01.
