 Entering Gaussian System, Link 0=/home/madghost/g09/g09
 Input=Ab_90_90S.gjf
 Output=Ab_90_90S.log
 Initial command:
 /home/madghost/g09/l1.exe "/scr/pogonin/Ab_90_90S/Gau-1437902.inp" -scrdir="/scr/pogonin/Ab_90_90S/"
 Entering Link 1 = /home/madghost/g09/l1.exe PID=   1437904.
  
 Copyright (c) 1988,1990,1992,1993,1995,1998,2003,2009,2013,
            Gaussian, Inc.  All Rights Reserved.
  
 This is part of the Gaussian(R) 09 program.  It is based on
 the Gaussian(R) 03 system (copyright 2003, Gaussian, Inc.),
 the Gaussian(R) 98 system (copyright 1998, Gaussian, Inc.),
 the Gaussian(R) 94 system (copyright 1995, Gaussian, Inc.),
 the Gaussian 92(TM) system (copyright 1992, Gaussian, Inc.),
 the Gaussian 90(TM) system (copyright 1990, Gaussian, Inc.),
 the Gaussian 88(TM) system (copyright 1988, Gaussian, Inc.),
 the Gaussian 86(TM) system (copyright 1986, Carnegie Mellon
 University), and the Gaussian 82(TM) system (copyright 1983,
 Carnegie Mellon University). Gaussian is a federally registered
 trademark of Gaussian, Inc.
  
 This software contains proprietary and confidential information,
 including trade secrets, belonging to Gaussian, Inc.
  
 This software is provided under written license and may be
 used, copied, transmitted, or stored only in accord with that
 written license.
  
 The following legend is applicable only to US Government
 contracts under FAR:
  
                    RESTRICTED RIGHTS LEGEND
  
 Use, reproduction and disclosure by the US Government is
 subject to restrictions as set forth in subparagraphs (a)
 and (c) of the Commercial Computer Software - Restricted
 Rights clause in FAR 52.227-19.
  
 Gaussian, Inc.
 340 Quinnipiac St., Bldg. 40, Wallingford CT 06492
  
  
 ---------------------------------------------------------------
 Warning -- This program may not be used in any manner that
 competes with the business of Gaussian, Inc. or will provide
 assistance to any competitor of Gaussian, Inc.  The licensee
 of this program is prohibited from giving any competitor of
 Gaussian, Inc. access to this program.  By using this program,
 the user acknowledges that Gaussian, Inc. is engaged in the
 business of creating and licensing software in the field of
 computational chemistry and represents and warrants to the
 licensee that it is not a competitor of Gaussian, Inc. and that
 it will not use this program in any manner prohibited above.
 ---------------------------------------------------------------
  

 Cite this work as:
 Gaussian 09, Revision D.01,
 M. J. Frisch, G. W. Trucks, H. B. Schlegel, G. E. Scuseria, 
 M. A. Robb, J. R. Cheeseman, G. Scalmani, V. Barone, B. Mennucci, 
 G. A. Petersson, H. Nakatsuji, M. Caricato, X. Li, H. P. Hratchian, 
 A. F. Izmaylov, J. Bloino, G. Zheng, J. L. Sonnenberg, M. Hada, 
 M. Ehara, K. Toyota, R. Fukuda, J. Hasegawa, M. Ishida, T. Nakajima, 
 Y. Honda, O. Kitao, H. Nakai, T. Vreven, J. A. Montgomery, Jr., 
 J. E. Peralta, F. Ogliaro, M. Bearpark, J. J. Heyd, E. Brothers, 
 K. N. Kudin, V. N. Staroverov, T. Keith, R. Kobayashi, J. Normand, 
 K. Raghavachari, A. Rendell, J. C. Burant, S. S. Iyengar, J. Tomasi, 
 M. Cossi, N. Rega, J. M. Millam, M. Klene, J. E. Knox, J. B. Cross, 
 V. Bakken, C. Adamo, J. Jaramillo, R. Gomperts, R. E. Stratmann, 
 O. Yazyev, A. J. Austin, R. Cammi, C. Pomelli, J. W. Ochterski, 
 R. L. Martin, K. Morokuma, V. G. Zakrzewski, G. A. Voth, 
 P. Salvador, J. J. Dannenberg, S. Dapprich, A. D. Daniels, 
 O. Farkas, J. B. Foresman, J. V. Ortiz, J. Cioslowski, 
 and D. J. Fox, Gaussian, Inc., Wallingford CT, 2013.
 
 ******************************************
 Gaussian 09:  EM64L-G09RevD.01 24-Apr-2013
                28-Jan-2024 
 ******************************************
 %Chk=Ab_90_90S
 % nproc=96
 Will use up to   96 processors via shared memory.
 % mem=70000mb
 ----------------------------------------------------------------------
 #P b3lyp/gen opt(tight, ModRedundant) integral(Grid=ultrafine) Empiric
 alDispersion=GD3
 ----------------------------------------------------------------------
 1/7=10,14=-1,18=120,19=15,26=4,38=1/1,3;
 2/9=110,12=2,17=6,18=5,40=1/2;
 3/5=7,11=2,16=1,25=1,30=1,71=1,74=-5,75=-5,124=31/1,2,3;
 4//1;
 5/5=2,38=5/2;
 6/7=2,8=2,9=2,10=2,28=1/1;
 7//1,2,3,16;
 1/7=10,14=-1,18=20,19=15,26=4/3(2);
 2/9=110/2;
 99//99;
 2/9=110/2;
 3/5=7,6=1,11=2,16=1,25=1,30=1,71=1,74=-5,75=-5,82=7,124=31/1,2,3;
 4/5=5,16=3,69=1/1;
 5/5=2,38=5/2;
 7//1,2,3,16;
 1/7=10,14=-1,18=20,19=15,26=4/3(-5);
 2/9=110/2;
 6/7=2,8=2,9=2,10=2,19=2,28=1/1;
 99/9=1/99;
 Leave Link    1 at Sun Jan 28 15:02:40 2024, MaxMem=  9175040000 cpu:        47.6
 (Enter /home/madghost/g09/l101.exe)
 ----------------------------------------------------------------------
 pcseg-2 https://www.basissetexchange.org/basis/pcseg-2/format/gaussian
 94/?version=1&elements=1,6,7,8
 ----------------------------------------------------------------------
 Symbolic Z-matrix:
 Charge =  0 Multiplicity = 1
 6                    -0.32457   4.50575   0.19512 
 6                    -1.45266   3.7078    0.34835 
 6                     0.93474   3.91681   0.1333 
 1                     1.81612   4.53272   0.01615 
 6                    -1.3286    2.32563   0.43057 
 6                     1.07039   2.53775   0.22966 
 1                    -2.19886   1.6951    0.54864 
 1                     2.04547   2.07127   0.20305 
 6                    -0.06688   1.74673   0.35351 
 7                     0.08973   0.33397   0.53887 
 7                     0.00412  -0.32841  -0.5006 
 6                     1.50797  -3.70576  -0.43713 
 6                     1.37688  -2.32678  -0.53228 
 6                     0.13358  -1.74158  -0.31264 
 6                    -0.9866   -2.52836  -0.06608 
 6                    -0.85005  -3.90986   0.00334 
 6                     0.39592  -4.50068  -0.17355 
 1                     2.47813  -4.16163  -0.58125 
 1                     2.22699  -1.70044  -0.76499 
 1                    -1.71929  -4.52374   0.19702 
 1                    -1.94854  -2.0551    0.07277 
 1                    -2.43395   4.15964   0.40221 
 1                    -0.42461   5.5804    0.12987 
 1                     0.49963  -5.57546  -0.11579 
 
 The following ModRedundant input section has been read:
 D       5       9      10      11 F                                           
 D      10      11      14      15 S  18 -10.00                                
 
 NAtoms=     24 NQM=       24 NQMF=       0 NMMI=      0 NMMIF=      0
                NMic=       0 NMicF=      0.
                    Isotopes and Nuclear Properties:
 (Nuclear quadrupole moments (NQMom) in fm**2, nuclear magnetic moments (NMagM)
  in nuclear magnetons)

  Atom         1           2           3           4           5           6           7           8           9          10
 IAtWgt=          12          12          12           1          12          12           1           1          12          14
 AtmWgt=  12.0000000  12.0000000  12.0000000   1.0078250  12.0000000  12.0000000   1.0078250   1.0078250  12.0000000  14.0030740
 NucSpn=           0           0           0           1           0           0           1           1           0           2
 AtZEff=   0.0000000   0.0000000   0.0000000   0.0000000   0.0000000   0.0000000   0.0000000   0.0000000   0.0000000   0.0000000
 NQMom=    0.0000000   0.0000000   0.0000000   0.0000000   0.0000000   0.0000000   0.0000000   0.0000000   0.0000000   2.0440000
 NMagM=    0.0000000   0.0000000   0.0000000   2.7928460   0.0000000   0.0000000   2.7928460   2.7928460   0.0000000   0.4037610
 AtZNuc=   6.0000000   6.0000000   6.0000000   1.0000000   6.0000000   6.0000000   1.0000000   1.0000000   6.0000000   7.0000000

  Atom        11          12          13          14          15          16          17          18          19          20
 IAtWgt=          14          12          12          12          12          12          12           1           1           1
 AtmWgt=  14.0030740  12.0000000  12.0000000  12.0000000  12.0000000  12.0000000  12.0000000   1.0078250   1.0078250   1.0078250
 NucSpn=           2           0           0           0           0           0           0           1           1           1
 AtZEff=   0.0000000   0.0000000   0.0000000   0.0000000   0.0000000   0.0000000   0.0000000   0.0000000   0.0000000   0.0000000
 NQMom=    2.0440000   0.0000000   0.0000000   0.0000000   0.0000000   0.0000000   0.0000000   0.0000000   0.0000000   0.0000000
 NMagM=    0.4037610   0.0000000   0.0000000   0.0000000   0.0000000   0.0000000   0.0000000   2.7928460   2.7928460   2.7928460
 AtZNuc=   7.0000000   6.0000000   6.0000000   6.0000000   6.0000000   6.0000000   6.0000000   1.0000000   1.0000000   1.0000000

  Atom        21          22          23          24
 IAtWgt=           1           1           1           1
 AtmWgt=   1.0078250   1.0078250   1.0078250   1.0078250
 NucSpn=           1           1           1           1
 AtZEff=   0.0000000   0.0000000   0.0000000   0.0000000
 NQMom=    0.0000000   0.0000000   0.0000000   0.0000000
 NMagM=    2.7928460   2.7928460   2.7928460   2.7928460
 AtZNuc=   1.0000000   1.0000000   1.0000000   1.0000000
 Leave Link  101 at Sun Jan 28 15:02:41 2024, MaxMem=  9175040000 cpu:        38.5
 (Enter /home/madghost/g09/l103.exe)

 GradGradGradGradGradGradGradGradGradGradGradGradGradGradGradGradGradGrad
 Berny optimization.
 Initialization pass.
                           ----------------------------
                           !    Initial Parameters    !
                           ! (Angstroms and Degrees)  !
 --------------------------                            --------------------------
 ! Name  Definition              Value          Derivative Info.                !
 --------------------------------------------------------------------------------
 ! R1    R(1,2)                  1.3903         estimate D2E/DX2                !
 ! R2    R(1,3)                  1.3916         estimate D2E/DX2                !
 ! R3    R(1,23)                 1.0813         estimate D2E/DX2                !
 ! R4    R(2,5)                  1.3902         estimate D2E/DX2                !
 ! R5    R(2,22)                 1.0817         estimate D2E/DX2                !
 ! R6    R(3,4)                  1.0816         estimate D2E/DX2                !
 ! R7    R(3,6)                  1.3891         estimate D2E/DX2                !
 ! R8    R(5,7)                  1.0811         estimate D2E/DX2                !
 ! R9    R(5,9)                  1.3903         estimate D2E/DX2                !
 ! R10   R(6,8)                  1.0812         estimate D2E/DX2                !
 ! R11   R(6,9)                  1.3908         estimate D2E/DX2                !
 ! R12   R(9,10)                 1.4334         estimate D2E/DX2                !
 ! R13   R(10,11)                1.2355         estimate D2E/DX2                !
 ! R14   R(11,14)                1.4315         estimate D2E/DX2                !
 ! R15   R(12,13)                1.3885         estimate D2E/DX2                !
 ! R16   R(12,17)                1.3921         estimate D2E/DX2                !
 ! R17   R(12,18)                1.0816         estimate D2E/DX2                !
 ! R18   R(13,14)                1.3916         estimate D2E/DX2                !
 ! R19   R(13,19)                1.0813         estimate D2E/DX2                !
 ! R20   R(14,15)                1.3909         estimate D2E/DX2                !
 ! R21   R(15,16)                1.39           estimate D2E/DX2                !
 ! R22   R(15,21)                1.081          estimate D2E/DX2                !
 ! R23   R(16,17)                1.3903         estimate D2E/DX2                !
 ! R24   R(16,20)                1.0816         estimate D2E/DX2                !
 ! R25   R(17,24)                1.0813         estimate D2E/DX2                !
 ! A1    A(2,1,3)              119.7541         estimate D2E/DX2                !
 ! A2    A(2,1,23)             120.1341         estimate D2E/DX2                !
 ! A3    A(3,1,23)             120.111          estimate D2E/DX2                !
 ! A4    A(1,2,5)              120.3159         estimate D2E/DX2                !
 ! A5    A(1,2,22)             120.1233         estimate D2E/DX2                !
 ! A6    A(5,2,22)             119.5606         estimate D2E/DX2                !
 ! A7    A(1,3,4)              120.0811         estimate D2E/DX2                !
 ! A8    A(1,3,6)              120.3622         estimate D2E/DX2                !
 ! A9    A(4,3,6)              119.5554         estimate D2E/DX2                !
 ! A10   A(2,5,7)              120.9624         estimate D2E/DX2                !
 ! A11   A(2,5,9)              119.4521         estimate D2E/DX2                !
 ! A12   A(7,5,9)              119.5848         estimate D2E/DX2                !
 ! A13   A(3,6,8)              120.9762         estimate D2E/DX2                !
 ! A14   A(3,6,9)              119.4037         estimate D2E/DX2                !
 ! A15   A(8,6,9)              119.6189         estimate D2E/DX2                !
 ! A16   A(5,9,6)              120.6758         estimate D2E/DX2                !
 ! A17   A(5,9,10)             120.1555         estimate D2E/DX2                !
 ! A18   A(6,9,10)             118.8622         estimate D2E/DX2                !
 ! A19   A(9,10,11)            114.3316         estimate D2E/DX2                !
 ! A20   A(10,11,14)           114.3633         estimate D2E/DX2                !
 ! A21   A(13,12,17)           120.3093         estimate D2E/DX2                !
 ! A22   A(13,12,18)           119.6146         estimate D2E/DX2                !
 ! A23   A(17,12,18)           120.0718         estimate D2E/DX2                !
 ! A24   A(12,13,14)           119.4191         estimate D2E/DX2                !
 ! A25   A(12,13,19)           121.0526         estimate D2E/DX2                !
 ! A26   A(14,13,19)           119.5258         estimate D2E/DX2                !
 ! A27   A(11,14,13)           118.374          estimate D2E/DX2                !
 ! A28   A(11,14,15)           120.5885         estimate D2E/DX2                !
 ! A29   A(13,14,15)           120.6403         estimate D2E/DX2                !
 ! A30   A(14,15,16)           119.4692         estimate D2E/DX2                !
 ! A31   A(14,15,21)           119.4572         estimate D2E/DX2                !
 ! A32   A(16,15,21)           121.073          estimate D2E/DX2                !
 ! A33   A(15,16,17)           120.2698         estimate D2E/DX2                !
 ! A34   A(15,16,20)           119.6097         estimate D2E/DX2                !
 ! A35   A(17,16,20)           120.1205         estimate D2E/DX2                !
 ! A36   A(12,17,16)           119.8238         estimate D2E/DX2                !
 ! A37   A(12,17,24)           120.0702         estimate D2E/DX2                !
 ! A38   A(16,17,24)           120.1036         estimate D2E/DX2                !
 ! D1    D(3,1,2,5)             -0.4481         estimate D2E/DX2                !
 ! D2    D(3,1,2,22)           179.6857         estimate D2E/DX2                !
 ! D3    D(23,1,2,5)           179.9002         estimate D2E/DX2                !
 ! D4    D(23,1,2,22)            0.034          estimate D2E/DX2                !
 ! D5    D(2,1,3,4)           -179.8776         estimate D2E/DX2                !
 ! D6    D(2,1,3,6)             -0.2798         estimate D2E/DX2                !
 ! D7    D(23,1,3,4)            -0.2259         estimate D2E/DX2                !
 ! D8    D(23,1,3,6)           179.372          estimate D2E/DX2                !
 ! D9    D(1,2,5,7)           -179.9293         estimate D2E/DX2                !
 ! D10   D(1,2,5,9)             -0.228          estimate D2E/DX2                !
 ! D11   D(22,2,5,7)            -0.0623         estimate D2E/DX2                !
 ! D12   D(22,2,5,9)           179.639          estimate D2E/DX2                !
 ! D13   D(1,3,6,8)           -178.745          estimate D2E/DX2                !
 ! D14   D(1,3,6,9)              1.6703         estimate D2E/DX2                !
 ! D15   D(4,3,6,8)              0.8549         estimate D2E/DX2                !
 ! D16   D(4,3,6,9)           -178.7298         estimate D2E/DX2                !
 ! D17   D(2,5,9,6)              1.6449         estimate D2E/DX2                !
 ! D18   D(2,5,9,10)           175.2154         estimate D2E/DX2                !
 ! D19   D(7,5,9,6)           -178.6497         estimate D2E/DX2                !
 ! D20   D(7,5,9,10)            -5.0792         estimate D2E/DX2                !
 ! D21   D(3,6,9,5)             -2.3622         estimate D2E/DX2                !
 ! D22   D(3,6,9,10)          -176.0147         estimate D2E/DX2                !
 ! D23   D(8,6,9,5)            178.0474         estimate D2E/DX2                !
 ! D24   D(8,6,9,10)             4.395          estimate D2E/DX2                !
 ! D25   D(5,9,10,11)           90.0            Frozen                          !
 ! D26   D(6,9,10,11)          -96.3137         estimate D2E/DX2                !
 ! D27   D(9,10,11,14)        -178.8061         estimate D2E/DX2                !
 ! D28   D(10,11,14,13)        -97.1878         estimate D2E/DX2                !
 ! D29   D(10,11,14,15)         90.0            Scan                            !
 ! D30   D(17,12,13,14)          2.3789         estimate D2E/DX2                !
 ! D31   D(17,12,13,19)       -178.2019         estimate D2E/DX2                !
 ! D32   D(18,12,13,14)       -178.3793         estimate D2E/DX2                !
 ! D33   D(18,12,13,19)          1.0399         estimate D2E/DX2                !
 ! D34   D(13,12,17,16)         -0.3975         estimate D2E/DX2                !
 ! D35   D(13,12,17,24)        179.0307         estimate D2E/DX2                !
 ! D36   D(18,12,17,16)       -179.6358         estimate D2E/DX2                !
 ! D37   D(18,12,17,24)         -0.2076         estimate D2E/DX2                !
 ! D38   D(12,13,14,11)       -176.0402         estimate D2E/DX2                !
 ! D39   D(12,13,14,15)         -3.2319         estimate D2E/DX2                !
 ! D40   D(19,13,14,11)          4.5316         estimate D2E/DX2                !
 ! D41   D(19,13,14,15)        177.3399         estimate D2E/DX2                !
 ! D42   D(11,14,15,16)        174.7268         estimate D2E/DX2                !
 ! D43   D(11,14,15,21)         -5.5403         estimate D2E/DX2                !
 ! D44   D(13,14,15,16)          2.0782         estimate D2E/DX2                !
 ! D45   D(13,14,15,21)       -178.1888         estimate D2E/DX2                !
 ! D46   D(14,15,16,17)         -0.0621         estimate D2E/DX2                !
 ! D47   D(14,15,16,20)        179.8726         estimate D2E/DX2                !
 ! D48   D(21,15,16,17)       -179.7906         estimate D2E/DX2                !
 ! D49   D(21,15,16,20)          0.1441         estimate D2E/DX2                !
 ! D50   D(15,16,17,12)         -0.7718         estimate D2E/DX2                !
 ! D51   D(15,16,17,24)        179.8002         estimate D2E/DX2                !
 ! D52   D(20,16,17,12)        179.2939         estimate D2E/DX2                !
 ! D53   D(20,16,17,24)         -0.1341         estimate D2E/DX2                !
 --------------------------------------------------------------------------------
 Trust Radius=3.00D-01 FncErr=1.00D-07 GrdErr=1.00D-06
 Number of optimizations in scan=  19
 Number of steps in this run=    126 maximum allowed number of steps=    144.
 GradGradGradGradGradGradGradGradGradGradGradGradGradGradGradGradGradGrad

 Leave Link  103 at Sun Jan 28 15:02:42 2024, MaxMem=  9175040000 cpu:         1.4
 (Enter /home/madghost/g09/l202.exe)
                          Input orientation:                          
 ---------------------------------------------------------------------
 Center     Atomic      Atomic             Coordinates (Angstroms)
 Number     Number       Type             X           Y           Z
 ---------------------------------------------------------------------
      1          6           0       -0.324566    4.505754    0.195122
      2          6           0       -1.452661    3.707799    0.348355
      3          6           0        0.934735    3.916808    0.133305
      4          1           0        1.816119    4.532719    0.016151
      5          6           0       -1.328597    2.325629    0.430575
      6          6           0        1.070391    2.537746    0.229659
      7          1           0       -2.198860    1.695102    0.548642
      8          1           0        2.045467    2.071273    0.203053
      9          6           0       -0.066882    1.746731    0.353514
     10          7           0        0.089725    0.333971    0.538865
     11          7           0        0.004118   -0.328414   -0.500599
     12          6           0        1.507970   -3.705762   -0.437131
     13          6           0        1.376880   -2.326781   -0.532279
     14          6           0        0.133576   -1.741582   -0.312644
     15          6           0       -0.986597   -2.528360   -0.066078
     16          6           0       -0.850055   -3.909859    0.003335
     17          6           0        0.395921   -4.500684   -0.173546
     18          1           0        2.478129   -4.161627   -0.581254
     19          1           0        2.226989   -1.700445   -0.764992
     20          1           0       -1.719289   -4.523737    0.197019
     21          1           0       -1.948537   -2.055096    0.072769
     22          1           0       -2.433947    4.159636    0.402213
     23          1           0       -0.424609    5.580401    0.129872
     24          1           0        0.499627   -5.575460   -0.115787
 ---------------------------------------------------------------------
                    Distance matrix (angstroms):
                    1          2          3          4          5
     1  C    0.000000
     2  C    1.390255   0.000000
     3  C    1.391589   2.406157   0.000000
     4  H    2.148323   3.387591   1.081623   0.000000
     5  C    2.411733   1.390160   2.782605   3.864224   0.000000
     6  C    2.412499   2.783685   1.389064   2.140471   2.416713
     7  H    3.396721   2.155893   3.863665   4.945268   1.081140
     8  H    3.397619   3.864741   2.155131   2.479163   3.391278
     9  C    2.775553   2.401291   2.400201   3.379532   1.390318
    10  N    4.206373   3.714561   3.703410   4.569809   2.447461
    11  N    4.895022   4.374236   4.392015   5.213540   3.112420
    12  C    8.437235   8.021422   7.665349   8.256694   6.721362
    13  C    7.078670   6.722943   6.294513   6.895393   5.467322
    14  C    6.284658   5.713914   5.732199   6.504300   4.385491
    15  C    7.070026   6.267268   6.728407   7.597422   4.891303
    16  C    8.434184   7.649241   8.028642   8.853575   6.268401
    17  C    9.042728   8.430232   8.440299   9.146328   7.066645
    18  H    9.142284   8.845515   8.255530   8.739955   7.589430
    19  H    6.778581   6.635395   5.833557   6.295342   5.502803
    20  H    9.136573   8.237243   8.848204   9.723746   6.864475
    21  H    6.759956   5.790751   6.631785   7.587829   4.438818
    22  H    2.147596   1.081656   3.388111   4.283841   2.141538
    23  H    1.081265   2.147385   2.148342   2.476173   3.391335
    24  H   10.119626   9.497670   9.505499  10.194403   8.128230
                    6          7          8          9         10
     6  C    0.000000
     7  H    3.391136   0.000000
     8  H    1.081239   4.274956   0.000000
     9  C    1.390839   2.141512   2.142425   0.000000
    10  N    2.431859   2.662780   2.637407   1.433447   0.000000
    11  N    3.144056   3.169959   3.228115   2.245167   1.235544
    12  C    6.294242   6.624325   5.837197   5.730180   4.391290
    13  C    4.933367   5.489067   4.508947   4.411641   3.143838
    14  C    4.414110   4.241800   4.296409   3.557004   2.243861
    15  C    5.475773   4.436789   5.515656   4.392987   3.117269
    16  C    6.731341   5.790702   6.648148   5.721276   4.379506
    17  C    7.082159   6.755902   6.786269   6.286666   4.896445
    18  H    6.893541   7.579721   6.296934   6.500736   5.212441
    19  H    4.504366   5.730926   3.898194   4.289046   3.225955
    20  H    7.592623   6.247207   7.593918   6.486425   5.194874
    21  H    5.498431   3.788550   5.744211   4.251274   3.174807
    22  H    3.865318   2.480047   4.946319   3.380455   4.585118
    23  H    3.391568   4.291722   4.291924   3.856814   5.287423
    24  H    8.140591   7.783596   7.807932   7.359052   5.959695
                   11         12         13         14         15
    11  N    0.000000
    12  C    3.697578   0.000000
    13  C    2.424655   1.388462   0.000000
    14  C    1.431478   2.400513   1.391583   0.000000
    15  C    2.451548   2.783311   2.417437   1.390900   0.000000
    16  C    3.716223   2.407478   2.784288   2.401832   1.389965
    17  C    4.203369   1.392132   2.411809   2.775034   2.411009
    18  H    4.562977   1.081569   2.140516   3.380192   3.864879
    19  H    2.625553   2.155407   1.081267   2.142122   3.391321
    20  H    4.588850   3.389164   3.865845   3.381309   2.141866
    21  H    2.668903   3.864212   3.390913   2.140567   1.081011
    22  H    5.186696   8.837856   7.580849   6.475150   6.858820
    23  H    5.957802   9.502062   8.136789   7.356550   8.130574
    24  H    5.284420   2.148438   3.390716   3.856341   3.390597
                   16         17         18         19         20
    16  C    0.000000
    17  C    1.390257   0.000000
    18  H    3.388501   2.148668   0.000000
    19  H    3.865235   3.397640   2.480776   0.000000
    20  H    1.081632   2.147548   4.284291   4.946671   0.000000
    21  H    2.156763   3.396770   4.945764   4.273480   2.482374
    22  H    8.233138   9.129117   9.712832   7.578076   8.715148
    23  H    9.500635  10.118973  10.190128   7.800159  10.186968
    24  H    2.147104   1.081311   2.475894   4.291968   2.475390
                   21         22         23         24
    21  H    0.000000
    22  H    6.242360   0.000000
    23  H    7.786298   2.475920   0.000000
    24  H    4.292087  10.180681  11.196776   0.000000
 Stoichiometry    C12H10N2
 Framework group  C1[X(C12H10N2)]
 Deg. of freedom    66
 Full point group                 C1      NOp   1
 Largest Abelian subgroup         C1      NOp   1
 Largest concise Abelian subgroup C1      NOp   1
                         Standard orientation:                         
 ---------------------------------------------------------------------
 Center     Atomic      Atomic             Coordinates (Angstroms)
 Number     Number       Type             X           Y           Z
 ---------------------------------------------------------------------
      1          6           0        4.519077    0.001948   -0.145306
      2          6           0        3.820751    1.203469   -0.106587
      3          6           0        3.834695   -1.199879    0.008814
      4          1           0        4.372990   -2.137645   -0.018445
      5          6           0        2.442625    1.208551    0.075861
      6          6           0        2.459806   -1.204557    0.206692
      7          1           0        1.889026    2.136696    0.106492
      8          1           0        1.921016   -2.131332    0.347660
      9          6           0        1.766964    0.001404    0.214658
     10          7           0        0.363367   -0.008895    0.505483
     11          7           0       -0.363519   -0.011453   -0.493616
     12          6           0       -3.830624   -1.202938   -0.012337
     13          6           0       -2.456070   -1.202593   -0.208367
     14          6           0       -1.765306    0.005434   -0.204066
     15          6           0       -2.446421    1.211013   -0.072686
     16          6           0       -3.825731    1.201966    0.098849
     17          6           0       -4.519227   -0.002353    0.137506
     18          1           0       -4.366913   -2.141890    0.011190
     19          1           0       -1.913345   -2.126239   -0.354882
     20          1           0       -4.357430    2.138080    0.203325
     21          1           0       -1.893819    2.139667   -0.101306
     22          1           0        4.347400    2.141346   -0.220634
     23          1           0        5.590753    0.001350   -0.288979
     24          1           0       -5.591842   -0.006388    0.274309
 ---------------------------------------------------------------------
 Rotational constants (GHZ):      2.7095066      0.2929309      0.2672761
 Leave Link  202 at Sun Jan 28 15:02:42 2024, MaxMem=  9175040000 cpu:         0.5
 (Enter /home/madghost/g09/l301.exe)
 General basis read from cards:  (5D, 7F)
 Centers:       4      7      8     18     19     20     21     22     23     24
 S 4 1.00
     Exponent=  7.5473200000D+01 Coefficients=  4.2782100000D-03
     Exponent=  1.1357500000D+01 Coefficients=  3.2867200000D-02
     Exponent=  2.6008100000D+00 Coefficients=  1.5957800000D-01
     Exponent=  7.3550300000D-01 Coefficients=  5.0000000000D-01
 S 1 1.00
     Exponent=  2.3176100000D-01 Coefficients=  1.0000000000D+00
 S 1 1.00
     Exponent=  7.4167500000D-02 Coefficients=  1.0000000000D+00
 P 1 1.00
     Exponent=  1.6000000000D+00 Coefficients=  1.0000000000D+00
 P 1 1.00
     Exponent=  4.5000000000D-01 Coefficients=  1.0000000000D+00
 D 1 1.00
     Exponent=  1.2500000000D+00 Coefficients=  1.0000000000D+00
 ****
 Centers:       1      2      3      5      6      9     12     13     14     15
 Centers:      16     17
 S 7 1.00
     Exponent=  7.3199900000D+03 Coefficients=  6.9536900000D-04
     Exponent=  1.0981800000D+03 Coefficients=  5.3713800000D-03
     Exponent=  2.5001400000D+02 Coefficients=  2.7473400000D-02
     Exponent=  7.0758600000D+01 Coefficients=  1.0507800000D-01
     Exponent=  2.2859500000D+01 Coefficients=  2.9126200000D-01
     Exponent=  8.0393600000D+00 Coefficients=  5.0000000000D-01
     Exponent=  2.8930900000D+00 Coefficients=  3.6222400000D-01
 S 2 1.00
     Exponent=  5.2164000000D+00 Coefficients= -9.5784400000D-02
     Exponent=  5.5612400000D-01 Coefficients=  5.0000000000D-01
 S 1 1.00
     Exponent=  2.2881300000D-01 Coefficients=  1.0000000000D+00
 S 1 1.00
     Exponent=  9.3633800000D-02 Coefficients=  1.0000000000D+00
 P 4 1.00
     Exponent=  3.3985500000D+01 Coefficients=  8.1839500000D-03
     Exponent=  7.7295700000D+00 Coefficients=  5.8692100000D-02
     Exponent=  2.2495400000D+00 Coefficients=  2.2251400000D-01
     Exponent=  7.6768100000D-01 Coefficients=  5.0000000000D-01
 P 1 1.00
     Exponent=  2.6328300000D-01 Coefficients=  1.0000000000D+00
 P 1 1.00
     Exponent=  8.4874400000D-02 Coefficients=  1.0000000000D+00
 D 1 1.00
     Exponent=  1.4000000000D+00 Coefficients=  1.0000000000D+00
 D 1 1.00
     Exponent=  4.5000000000D-01 Coefficients=  1.0000000000D+00
 F 1 1.00
     Exponent=  9.5000000000D-01 Coefficients=  1.0000000000D+00
 ****
 Centers:      10     11
 S 7 1.00
     Exponent=  1.0164300000D+04 Coefficients=  6.8275700000D-04
     Exponent=  1.5248100000D+03 Coefficients=  5.2748800000D-03
     Exponent=  3.4711900000D+02 Coefficients=  2.7003700000D-02
     Exponent=  9.8238900000D+01 Coefficients=  1.0367300000D-01
     Exponent=  3.1779900000D+01 Coefficients=  2.8957500000D-01
     Exponent=  1.1224000000D+01 Coefficients=  5.0000000000D-01
     Exponent=  4.0661100000D+00 Coefficients=  3.6462100000D-01
 S 2 1.00
     Exponent=  7.4789800000D+00 Coefficients= -9.7568100000D-02
     Exponent=  8.0504000000D-01 Coefficients=  5.0000000000D-01
 S 1 1.00
     Exponent=  3.2462600000D-01 Coefficients=  1.0000000000D+00
 S 1 1.00
     Exponent=  1.2813200000D-01 Coefficients=  1.0000000000D+00
 P 4 1.00
     Exponent=  4.8270400000D+01 Coefficients=  8.2954700000D-03
     Exponent=  1.1081500000D+01 Coefficients=  5.9622300000D-02
     Exponent=  3.2664300000D+00 Coefficients=  2.2788900000D-01
     Exponent=  1.1168000000D+00 Coefficients=  5.0000000000D-01
 P 1 1.00
     Exponent=  3.8204900000D-01 Coefficients=  1.0000000000D+00
 P 1 1.00
     Exponent=  1.2122200000D-01 Coefficients=  1.0000000000D+00
 D 1 1.00
     Exponent=  1.8000000000D+00 Coefficients=  1.0000000000D+00
 D 1 1.00
     Exponent=  5.5000000000D-01 Coefficients=  1.0000000000D+00
 F 1 1.00
     Exponent=  1.0200000000D+00 Coefficients=  1.0000000000D+00
 ****
 Ernie: Thresh=  0.10000D-02 Tol=  0.10000D-05 Strict=F.
 There are   640 symmetry adapted cartesian basis functions of A   symmetry.
 There are   560 symmetry adapted basis functions of A   symmetry.
   560 basis functions,   894 primitive gaussians,   640 cartesian basis functions
    48 alpha electrons       48 beta electrons
       nuclear repulsion energy       751.0243469381 Hartrees.
 IExCor=  402 DFT=T Ex+Corr=B3LYP ExCW=0 ScaHFX=  0.200000
 ScaDFX=  0.800000  0.720000  1.000000  0.810000 ScalE2=  1.000000  1.000000
 IRadAn=      5 IRanWt=     -1 IRanGd=            0 ICorTp=0 IEmpDi=131
 NAtoms=   24 NActive=   24 NUniq=   24 SFac= 1.00D+00 NAtFMM=   60 NAOKFM=F Big=F
 Integral buffers will be    131072 words long.
 Raffenetti 2 integral format.
 Two-electron integral symmetry is turned on.
 R6Disp:  Grimme-D3 Dispersion energy=       -0.0159842973 Hartrees.
 Nuclear repulsion after empirical dispersion term =      751.0083626409 Hartrees.
 Leave Link  301 at Sun Jan 28 15:02:43 2024, MaxMem=  9175040000 cpu:         9.3
 (Enter /home/madghost/g09/l302.exe)
 NPDir=0 NMtPBC=     1 NCelOv=     1 NCel=       1 NClECP=     1 NCelD=      1
         NCelK=      1 NCelE2=     1 NClLst=     1 CellRange=     0.0.
 One-electron integrals computed using PRISM.
 NBasis=   560 RedAO= T EigKep=  1.62D-05  NBF=   560
 NBsUse=   560 1.00D-06 EigRej= -1.00D+00 NBFU=   560
 Precomputing XC quadrature grid using
 IXCGrd= 4 IRadAn=           5 IRanWt=          -1 IRanGd=           0 AccXCQ= 0.00D+00.
 Generated NRdTot=       0 NPtTot=           0 NUsed=           0 NTot=          32
 NSgBfM=   628   628   628   628   628 MxSgAt=    24 MxSgA2=    24.
 Leave Link  302 at Sun Jan 28 15:02:46 2024, MaxMem=  9175040000 cpu:       121.6
 (Enter /home/madghost/g09/l303.exe)
 DipDrv:  MaxL=1.
 Leave Link  303 at Sun Jan 28 15:02:48 2024, MaxMem=  9175040000 cpu:         9.8
 (Enter /home/madghost/g09/l401.exe)
 ExpMin= 7.42D-02 ExpMax= 1.02D+04 ExpMxC= 3.47D+02 IAcc=3 IRadAn=         5 AccDes= 0.00D+00
 Harris functional with IExCor=  402 and IRadAn=       5 diagonalized for initial guess.
 HarFok:  IExCor=  402 AccDes= 0.00D+00 IRadAn=         5 IDoV= 1 UseB2=F ITyADJ=14
 ICtDFT=  3500011 ScaDFX=  1.000000  1.000000  1.000000  1.000000
 FoFCou: FMM=F IPFlag=           0 FMFlag=      100000 FMFlg1=           0
         NFxFlg=           0 DoJE=T BraDBF=F KetDBF=T FulRan=T
         wScrn=  0.000000 ICntrl=     500 IOpCl=  0 I1Cent=   200000004 NGrid=           0
         NMat0=    1 NMatS0=      1 NMatT0=    0 NMatD0=    1 NMtDS0=    0 NMtDT0=    0
 Petite list used in FoFCou.
 Harris En= -573.027965203818    
 JPrj=0 DoOrth=F DoCkMO=F.
 Leave Link  401 at Sun Jan 28 15:02:50 2024, MaxMem=  9175040000 cpu:       164.1
 (Enter /home/madghost/g09/l502.exe)
 Closed shell SCF:
 Using DIIS extrapolation, IDIIS=  1040.
 Integral symmetry usage will be decided dynamically.
 IVT=     1313438 IEndB=     1313438 NGot=  9175040000 MDV=  9174153443
 LenX=  9174153443 LenY=  9173743203
 Requested convergence on RMS density matrix=1.00D-08 within 128 cycles.
 Requested convergence on MAX density matrix=1.00D-06.
 Requested convergence on             energy=1.00D-06.
 No special actions if energy rises.
 Fock matrices will be formed incrementally for  20 cycles.
 Integral accuracy reduced to 1.0D-05 until final iterations.

 Cycle   1  Pass 0  IDiag  1:
 FoFJK:  IHMeth= 1 ICntrl=       0 DoSepK=F KAlg= 0 I1Cent=   0 FoldK=F
 IRaf= 810000000 NMat=   1 IRICut=       1 DoRegI=T DoRafI=F ISym2E= 0.
 FoFCou: FMM=F IPFlag=           0 FMFlag=      100000 FMFlg1=           0
         NFxFlg=           0 DoJE=F BraDBF=F KetDBF=F FulRan=T
         wScrn=  0.000000 ICntrl=       0 IOpCl=  0 I1Cent=           0 NGrid=           0
         NMat0=    1 NMatS0=      1 NMatT0=    0 NMatD0=    1 NMtDS0=    0 NMtDT0=    0
 Symmetry not used in FoFCou.
 E= -572.618881194964    
 DIIS: error= 3.67D-02 at cycle   1 NSaved=   1.
 NSaved= 1 IEnMin= 1 EnMin= -572.618881194964     IErMin= 1 ErrMin= 3.67D-02
 ErrMax= 3.67D-02  0.00D+00 EMaxC= 1.00D-01 BMatC= 3.43D-01 BMatP= 3.43D-01
 IDIUse=3 WtCom= 6.33D-01 WtEn= 3.67D-01
 Coeff-Com:  0.100D+01
 Coeff-En:   0.100D+01
 Coeff:      0.100D+01
 Gap=     0.261 Goal=   None    Shift=    0.000
 GapD=    0.261 DampG=1.000 DampE=0.500 DampFc=0.5000 IDamp=-1.
 Damping current iteration by 5.00D-01
 RMSDP=3.48D-03 MaxDP=1.67D-01              OVMax= 2.34D-01

 Cycle   2  Pass 0  IDiag  1:
 RMSU=  1.73D-03    CP:  9.83D-01
 E= -572.747906344203     Delta-E=       -0.129025149239 Rises=F Damp=T
 DIIS: error= 9.27D-03 at cycle   2 NSaved=   2.
 NSaved= 2 IEnMin= 2 EnMin= -572.747906344203     IErMin= 2 ErrMin= 9.27D-03
 ErrMax= 9.27D-03  0.00D+00 EMaxC= 1.00D-01 BMatC= 3.17D-02 BMatP= 3.43D-01
 IDIUse=3 WtCom= 9.07D-01 WtEn= 9.27D-02
 Coeff-Com:  0.109D+00 0.891D+00
 Coeff-En:   0.233D+00 0.767D+00
 Coeff:      0.121D+00 0.879D+00
 Gap=     0.232 Goal=   None    Shift=    0.000
 RMSDP=1.56D-03 MaxDP=7.95D-02 DE=-1.29D-01 OVMax= 1.84D-01

 Cycle   3  Pass 0  IDiag  1:
 RMSU=  1.42D-03    CP:  9.85D-01  1.37D+00
 E= -572.945232364022     Delta-E=       -0.197326019819 Rises=F Damp=F
 DIIS: error= 9.60D-03 at cycle   3 NSaved=   3.
 NSaved= 3 IEnMin= 3 EnMin= -572.945232364022     IErMin= 2 ErrMin= 9.27D-03
 ErrMax= 9.60D-03  0.00D+00 EMaxC= 1.00D-01 BMatC= 2.53D-02 BMatP= 3.17D-02
 IDIUse=3 WtCom= 9.04D-01 WtEn= 9.60D-02
 Coeff-Com: -0.152D-01 0.469D+00 0.546D+00
 Coeff-En:   0.000D+00 0.000D+00 0.100D+01
 Coeff:     -0.138D-01 0.424D+00 0.590D+00
 Gap=     0.185 Goal=   None    Shift=    0.000
 RMSDP=1.11D-03 MaxDP=7.56D-02 DE=-1.97D-01 OVMax= 8.38D-02

 Cycle   4  Pass 0  IDiag  1:
 RMSU=  4.15D-04    CP:  9.82D-01  1.07D+00  3.75D-01
 E= -572.966073417267     Delta-E=       -0.020841053245 Rises=F Damp=F
 DIIS: error= 6.52D-03 at cycle   4 NSaved=   4.
 NSaved= 4 IEnMin= 4 EnMin= -572.966073417267     IErMin= 4 ErrMin= 6.52D-03
 ErrMax= 6.52D-03  0.00D+00 EMaxC= 1.00D-01 BMatC= 6.03D-03 BMatP= 2.53D-02
 IDIUse=3 WtCom= 9.35D-01 WtEn= 6.52D-02
 Coeff-Com: -0.208D-01 0.156D+00 0.364D+00 0.501D+00
 Coeff-En:   0.000D+00 0.000D+00 0.228D+00 0.772D+00
 Coeff:     -0.195D-01 0.146D+00 0.355D+00 0.518D+00
 Gap=     0.164 Goal=   None    Shift=    0.000
 RMSDP=3.18D-04 MaxDP=1.87D-02 DE=-2.08D-02 OVMax= 3.25D-02

 Cycle   5  Pass 0  IDiag  1:
 RMSU=  1.10D-04    CP:  9.83D-01  1.15D+00  5.43D-01  6.79D-01
 E= -572.972852095818     Delta-E=       -0.006778678551 Rises=F Damp=F
 DIIS: error= 1.76D-03 at cycle   5 NSaved=   5.
 NSaved= 5 IEnMin= 5 EnMin= -572.972852095818     IErMin= 5 ErrMin= 1.76D-03
 ErrMax= 1.76D-03  0.00D+00 EMaxC= 1.00D-01 BMatC= 5.18D-04 BMatP= 6.03D-03
 IDIUse=3 WtCom= 9.82D-01 WtEn= 1.76D-02
 Coeff-Com: -0.113D-01 0.338D-01 0.138D+00 0.298D+00 0.542D+00
 Coeff-En:   0.000D+00 0.000D+00 0.000D+00 0.195D-01 0.980D+00
 Coeff:     -0.111D-01 0.332D-01 0.136D+00 0.293D+00 0.549D+00
 Gap=     0.163 Goal=   None    Shift=    0.000
 RMSDP=6.42D-05 MaxDP=2.81D-03 DE=-6.78D-03 OVMax= 7.67D-03

 Cycle   6  Pass 0  IDiag  1:
 RMSU=  3.98D-05    CP:  9.83D-01  1.17D+00  5.59D-01  6.75D-01  7.52D-01
 E= -572.973366568005     Delta-E=       -0.000514472187 Rises=F Damp=F
 DIIS: error= 2.93D-04 at cycle   6 NSaved=   6.
 NSaved= 6 IEnMin= 6 EnMin= -572.973366568005     IErMin= 6 ErrMin= 2.93D-04
 ErrMax= 2.93D-04  0.00D+00 EMaxC= 1.00D-01 BMatC= 4.26D-05 BMatP= 5.18D-04
 IDIUse=3 WtCom= 9.97D-01 WtEn= 2.93D-03
 Coeff-Com: -0.352D-02 0.185D-02 0.327D-01 0.994D-01 0.293D+00 0.577D+00
 Coeff-En:   0.000D+00 0.000D+00 0.000D+00 0.000D+00 0.116D-02 0.999D+00
 Coeff:     -0.351D-02 0.185D-02 0.326D-01 0.991D-01 0.292D+00 0.578D+00
 Gap=     0.163 Goal=   None    Shift=    0.000
 RMSDP=1.75D-05 MaxDP=8.26D-04 DE=-5.14D-04 OVMax= 1.43D-03

 Cycle   7  Pass 0  IDiag  1:
 RMSU=  1.14D-05    CP:  9.83D-01  1.16D+00  5.54D-01  6.87D-01  7.63D-01
                    CP:  7.66D-01
 E= -572.973408580065     Delta-E=       -0.000042012060 Rises=F Damp=F
 DIIS: error= 2.87D-05 at cycle   7 NSaved=   7.
 NSaved= 7 IEnMin= 7 EnMin= -572.973408580065     IErMin= 7 ErrMin= 2.87D-05
 ErrMax= 2.87D-05  0.00D+00 EMaxC= 1.00D-01 BMatC= 4.60D-07 BMatP= 4.26D-05
 IDIUse=1 WtCom= 1.00D+00 WtEn= 0.00D+00
 Coeff-Com: -0.300D-03-0.131D-02 0.344D-02 0.151D-01 0.567D-01 0.154D+00
 Coeff-Com:  0.772D+00
 Coeff:     -0.300D-03-0.131D-02 0.344D-02 0.151D-01 0.567D-01 0.154D+00
 Coeff:      0.772D+00
 Gap=     0.163 Goal=   None    Shift=    0.000
 RMSDP=1.89D-05 MaxDP=9.31D-04 DE=-4.20D-05 OVMax= 2.40D-04

 Cycle   8  Pass 0  IDiag  1:
 RMSU=  1.01D-05    CP:  9.83D-01  1.17D+00  5.62D-01  6.75D-01  7.59D-01
                    CP:  8.59D-01  1.29D+00
 E= -572.973407107655     Delta-E=        0.000001472410 Rises=F Damp=F
 DIIS: error= 2.36D-05 at cycle   8 NSaved=   8.
 NSaved= 8 IEnMin= 7 EnMin= -572.973408580065     IErMin= 8 ErrMin= 2.36D-05
 ErrMax= 2.36D-05  0.00D+00 EMaxC= 1.00D-01 BMatC= 2.84D-07 BMatP= 4.60D-07
 IDIUse=1 WtCom= 1.00D+00 WtEn= 0.00D+00
 Coeff-Com:  0.116D-03-0.964D-03-0.425D-03 0.133D-02 0.118D-01 0.511D-01
 Coeff-Com:  0.487D+00 0.450D+00
 Coeff:      0.116D-03-0.964D-03-0.425D-03 0.133D-02 0.118D-01 0.511D-01
 Coeff:      0.487D+00 0.450D+00
 Gap=     0.163 Goal=   None    Shift=    0.000
 RMSDP=7.96D-06 MaxDP=3.79D-04 DE= 1.47D-06 OVMax= 1.71D-04

 Initial convergence to 1.0D-05 achieved.  Increase integral accuracy.
 Cycle   9  Pass 1  IDiag  1:
 E= -572.973393150209     Delta-E=        0.000013957446 Rises=F Damp=F
 DIIS: error= 4.69D-04 at cycle   1 NSaved=   1.
 NSaved= 1 IEnMin= 1 EnMin= -572.973393150209     IErMin= 1 ErrMin= 4.69D-04
 ErrMax= 4.69D-04  0.00D+00 EMaxC= 1.00D-01 BMatC= 1.67D-05 BMatP= 1.67D-05
 IDIUse=3 WtCom= 9.95D-01 WtEn= 4.69D-03
 Coeff-Com:  0.100D+01
 Coeff-En:   0.100D+01
 Coeff:      0.100D+01
 Gap=     0.163 Goal=   None    Shift=    0.000
 RMSDP=7.96D-06 MaxDP=3.79D-04 DE= 1.40D-05 OVMax= 7.80D-04

 Cycle  10  Pass 1  IDiag  1:
 RMSU=  6.80D-04    CP:  9.88D-01
 E= -572.973403483591     Delta-E=       -0.000010333382 Rises=F Damp=F
 DIIS: error= 2.85D-05 at cycle   2 NSaved=   2.
 NSaved= 2 IEnMin= 2 EnMin= -572.973403483591     IErMin= 2 ErrMin= 2.85D-05
 ErrMax= 2.85D-05  0.00D+00 EMaxC= 1.00D-01 BMatC= 2.27D-07 BMatP= 1.67D-05
 IDIUse=1 WtCom= 1.00D+00 WtEn= 0.00D+00
 Coeff-Com:  0.139D-01 0.986D+00
 Coeff:      0.139D-01 0.986D+00
 Gap=     0.163 Goal=   None    Shift=    0.000
 RMSDP=1.13D-05 MaxDP=4.14D-04 DE=-1.03D-05 OVMax= 4.83D-04

 Cycle  11  Pass 1  IDiag  1:
 RMSU=  4.19D-06    CP:  9.87D-01  1.02D+00
 E= -572.973402494304     Delta-E=        0.000000989286 Rises=F Damp=F
 DIIS: error= 7.11D-05 at cycle   3 NSaved=   3.
 NSaved= 3 IEnMin= 2 EnMin= -572.973403483591     IErMin= 2 ErrMin= 2.85D-05
 ErrMax= 7.11D-05  0.00D+00 EMaxC= 1.00D-01 BMatC= 1.39D-06 BMatP= 2.27D-07
 IDIUse=1 WtCom= 1.00D+00 WtEn= 0.00D+00
 Coeff-Com: -0.345D-02 0.715D+00 0.288D+00
 Coeff:     -0.345D-02 0.715D+00 0.288D+00
 Gap=     0.163 Goal=   None    Shift=    0.000
 RMSDP=1.86D-06 MaxDP=1.32D-04 DE= 9.89D-07 OVMax= 3.45D-04

 Cycle  12  Pass 1  IDiag  1:
 RMSU=  1.52D-06    CP:  9.87D-01  1.02D+00  7.55D-01
 E= -572.973403677306     Delta-E=       -0.000001183002 Rises=F Damp=F
 DIIS: error= 8.12D-07 at cycle   4 NSaved=   4.
 NSaved= 4 IEnMin= 4 EnMin= -572.973403677306     IErMin= 4 ErrMin= 8.12D-07
 ErrMax= 8.12D-07  0.00D+00 EMaxC= 1.00D-01 BMatC= 3.04D-10 BMatP= 2.27D-07
 IDIUse=1 WtCom= 1.00D+00 WtEn= 0.00D+00
 Coeff-Com: -0.139D-02 0.279D+00 0.113D+00 0.609D+00
 Coeff:     -0.139D-02 0.279D+00 0.113D+00 0.609D+00
 Gap=     0.163 Goal=   None    Shift=    0.000
 RMSDP=1.23D-07 MaxDP=5.44D-06 DE=-1.18D-06 OVMax= 6.67D-06

 Cycle  13  Pass 1  IDiag  1:
 RMSU=  5.43D-08    CP:  9.87D-01  1.02D+00  7.67D-01  1.02D+00
 E= -572.973403677513     Delta-E=       -0.000000000207 Rises=F Damp=F
 DIIS: error= 5.30D-07 at cycle   5 NSaved=   5.
 NSaved= 5 IEnMin= 5 EnMin= -572.973403677513     IErMin= 5 ErrMin= 5.30D-07
 ErrMax= 5.30D-07  0.00D+00 EMaxC= 1.00D-01 BMatC= 8.66D-11 BMatP= 3.04D-10
 IDIUse=1 WtCom= 1.00D+00 WtEn= 0.00D+00
 Coeff-Com: -0.100D-03 0.164D-01 0.714D-02 0.347D+00 0.630D+00
 Coeff:     -0.100D-03 0.164D-01 0.714D-02 0.347D+00 0.630D+00
 Gap=     0.163 Goal=   None    Shift=    0.000
 RMSDP=7.77D-08 MaxDP=3.13D-06 DE=-2.07D-10 OVMax= 3.21D-06

 Cycle  14  Pass 1  IDiag  1:
 RMSU=  2.84D-08    CP:  9.87D-01  1.02D+00  7.74D-01  1.04D+00  1.06D+00
 E= -572.973403677589     Delta-E=       -0.000000000075 Rises=F Damp=F
 DIIS: error= 1.90D-07 at cycle   6 NSaved=   6.
 NSaved= 6 IEnMin= 6 EnMin= -572.973403677589     IErMin= 6 ErrMin= 1.90D-07
 ErrMax= 1.90D-07  0.00D+00 EMaxC= 1.00D-01 BMatC= 7.78D-12 BMatP= 8.66D-11
 IDIUse=1 WtCom= 1.00D+00 WtEn= 0.00D+00
 Coeff-Com: -0.890D-06-0.200D-02-0.548D-03 0.179D+00 0.371D+00 0.452D+00
 Coeff:     -0.890D-06-0.200D-02-0.548D-03 0.179D+00 0.371D+00 0.452D+00
 Gap=     0.163 Goal=   None    Shift=    0.000
 RMSDP=7.64D-09 MaxDP=2.87D-07 DE=-7.55D-11 OVMax= 1.17D-06

 SCF Done:  E(RB3LYP) =  -572.973403678     A.U. after   14 cycles
            NFock= 14  Conv=0.76D-08     -V/T= 2.0037
 KE= 5.708515144525D+02 PE=-2.833189199868D+03 EE= 9.383559190970D+02
 Leave Link  502 at Sun Jan 28 15:04:01 2024, MaxMem=  9175040000 cpu:      6710.1
 (Enter /home/madghost/g09/l601.exe)
 Copying SCF densities to generalized density rwf, IOpCl= 0 IROHF=0.

 **********************************************************************

            Population analysis using the SCF density.

 **********************************************************************

 Orbital symmetries:
       Occupied  (A) (A) (A) (A) (A) (A) (A) (A) (A) (A) (A) (A)
                 (A) (A) (A) (A) (A) (A) (A) (A) (A) (A) (A) (A)
                 (A) (A) (A) (A) (A) (A) (A) (A) (A) (A) (A) (A)
                 (A) (A) (A) (A) (A) (A) (A) (A) (A) (A) (A) (A)
       Virtual   (A) (A) (A) (A) (A) (A) (A) (A) (A) (A) (A) (A)
                 (A) (A) (A) (A) (A) (A) (A) (A) (A) (A) (A) (A)
                 (A) (A) (A) (A) (A) (A) (A) (A) (A) (A) (A) (A)
                 (A) (A) (A) (A) (A) (A) (A) (A) (A) (A) (A) (A)
                 (A) (A) (A) (A) (A) (A) (A) (A) (A) (A) (A) (A)
                 (A) (A) (A) (A) (A) (A) (A) (A) (A) (A) (A) (A)
                 (A) (A) (A) (A) (A) (A) (A) (A) (A) (A) (A) (A)
                 (A) (A) (A) (A) (A) (A) (A) (A) (A) (A) (A) (A)
                 (A) (A) (A) (A) (A) (A) (A) (A) (A) (A) (A) (A)
                 (A) (A) (A) (A) (A) (A) (A) (A) (A) (A) (A) (A)
                 (A) (A) (A) (A) (A) (A) (A) (A) (A) (A) (A) (A)
                 (A) (A) (A) (A) (A) (A) (A) (A) (A) (A) (A) (A)
                 (A) (A) (A) (A) (A) (A) (A) (A) (A) (A) (A) (A)
                 (A) (A) (A) (A) (A) (A) (A) (A) (A) (A) (A) (A)
                 (A) (A) (A) (A) (A) (A) (A) (A) (A) (A) (A) (A)
                 (A) (A) (A) (A) (A) (A) (A) (A) (A) (A) (A) (A)
                 (A) (A) (A) (A) (A) (A) (A) (A) (A) (A) (A) (A)
                 (A) (A) (A) (A) (A) (A) (A) (A) (A) (A) (A) (A)
                 (A) (A) (A) (A) (A) (A) (A) (A) (A) (A) (A) (A)
                 (A) (A) (A) (A) (A) (A) (A) (A) (A) (A) (A) (A)
                 (A) (A) (A) (A) (A) (A) (A) (A) (A) (A) (A) (A)
                 (A) (A) (A) (A) (A) (A) (A) (A) (A) (A) (A) (A)
                 (A) (A) (A) (A) (A) (A) (A) (A) (A) (A) (A) (A)
                 (A) (A) (A) (A) (A) (A) (A) (A) (A) (A) (A) (A)
                 (A) (A) (A) (A) (A) (A) (A) (A) (A) (A) (A) (A)
                 (A) (A) (A) (A) (A) (A) (A) (A) (A) (A) (A) (A)
                 (A) (A) (A) (A) (A) (A) (A) (A) (A) (A) (A) (A)
                 (A) (A) (A) (A) (A) (A) (A) (A) (A) (A) (A) (A)
                 (A) (A) (A) (A) (A) (A) (A) (A) (A) (A) (A) (A)
                 (A) (A) (A) (A) (A) (A) (A) (A) (A) (A) (A) (A)
                 (A) (A) (A) (A) (A) (A) (A) (A) (A) (A) (A) (A)
                 (A) (A) (A) (A) (A) (A) (A) (A) (A) (A) (A) (A)
                 (A) (A) (A) (A) (A) (A) (A) (A) (A) (A) (A) (A)
                 (A) (A) (A) (A) (A) (A) (A) (A) (A) (A) (A) (A)
                 (A) (A) (A) (A) (A) (A) (A) (A) (A) (A) (A) (A)
                 (A) (A) (A) (A) (A) (A) (A) (A) (A) (A) (A) (A)
                 (A) (A) (A) (A) (A) (A) (A) (A) (A) (A) (A) (A)
                 (A) (A) (A) (A) (A) (A) (A) (A) (A) (A) (A) (A)
                 (A) (A) (A) (A) (A) (A) (A) (A) (A) (A) (A) (A)
                 (A) (A) (A) (A) (A) (A) (A) (A) (A) (A) (A) (A)
                 (A) (A) (A) (A) (A) (A) (A) (A) (A) (A) (A) (A)
                 (A) (A) (A) (A) (A) (A) (A) (A) (A) (A) (A) (A)
                 (A) (A) (A) (A) (A) (A) (A) (A)
 The electronic state is 1-A.
 Alpha  occ. eigenvalues --  -14.38593 -14.38538 -10.21560 -10.21559 -10.18546
 Alpha  occ. eigenvalues --  -10.18532 -10.18490 -10.18482 -10.18466 -10.18460
 Alpha  occ. eigenvalues --  -10.18429 -10.18419 -10.18013 -10.18011  -1.06364
 Alpha  occ. eigenvalues --   -0.88414  -0.86543  -0.80679  -0.76051  -0.75994
 Alpha  occ. eigenvalues --   -0.75411  -0.68829  -0.62500  -0.62046  -0.61770
 Alpha  occ. eigenvalues --   -0.57826  -0.54595  -0.51257  -0.49250  -0.48636
 Alpha  occ. eigenvalues --   -0.47450  -0.46863  -0.45073  -0.44900  -0.43655
 Alpha  occ. eigenvalues --   -0.43547  -0.39321  -0.38678  -0.37825  -0.37079
 Alpha  occ. eigenvalues --   -0.37023  -0.36140  -0.34870  -0.28208  -0.26863
 Alpha  occ. eigenvalues --   -0.26827  -0.25759  -0.23529
 Alpha virt. eigenvalues --   -0.07202  -0.02291  -0.02110  -0.01867  -0.01707
 Alpha virt. eigenvalues --    0.01449   0.01957   0.02979   0.04167   0.04404
 Alpha virt. eigenvalues --    0.06045   0.06182   0.07630   0.09870   0.10327
 Alpha virt. eigenvalues --    0.11391   0.11990   0.12991   0.13796   0.14921
 Alpha virt. eigenvalues --    0.15890   0.16203   0.16596   0.17994   0.18385
 Alpha virt. eigenvalues --    0.18691   0.18951   0.19192   0.19602   0.20096
 Alpha virt. eigenvalues --    0.20799   0.21470   0.21724   0.21918   0.23901
 Alpha virt. eigenvalues --    0.24480   0.25674   0.25716   0.26218   0.26633
 Alpha virt. eigenvalues --    0.28111   0.28573   0.28736   0.29252   0.29601
 Alpha virt. eigenvalues --    0.30148   0.30178   0.30785   0.31024   0.31354
 Alpha virt. eigenvalues --    0.31510   0.31557   0.32567   0.33088   0.33448
 Alpha virt. eigenvalues --    0.34663   0.35070   0.35647   0.35730   0.36190
 Alpha virt. eigenvalues --    0.36954   0.37839   0.38982   0.39845   0.40502
 Alpha virt. eigenvalues --    0.40636   0.42766   0.44092   0.44526   0.44735
 Alpha virt. eigenvalues --    0.44933   0.45807   0.46315   0.47169   0.47370
 Alpha virt. eigenvalues --    0.48920   0.50190   0.52035   0.54999   0.56409
 Alpha virt. eigenvalues --    0.57514   0.57647   0.59610   0.60305   0.61405
 Alpha virt. eigenvalues --    0.61668   0.63643   0.63977   0.64117   0.64352
 Alpha virt. eigenvalues --    0.64919   0.67067   0.68865   0.68947   0.71207
 Alpha virt. eigenvalues --    0.71416   0.72300   0.73246   0.75901   0.75969
 Alpha virt. eigenvalues --    0.78532   0.80231   0.80780   0.81385   0.83411
 Alpha virt. eigenvalues --    0.84063   0.84661   0.85250   0.85667   0.85951
 Alpha virt. eigenvalues --    0.86319   0.90370   0.93686   0.95005   0.97061
 Alpha virt. eigenvalues --    0.97287   0.98584   1.01666   1.01855   1.02465
 Alpha virt. eigenvalues --    1.03076   1.03391   1.04194   1.05916   1.06933
 Alpha virt. eigenvalues --    1.06994   1.08240   1.08719   1.10415   1.10515
 Alpha virt. eigenvalues --    1.11328   1.11782   1.12632   1.13006   1.13257
 Alpha virt. eigenvalues --    1.14433   1.15567   1.15959   1.16122   1.18017
 Alpha virt. eigenvalues --    1.18837   1.19901   1.21038   1.21341   1.23888
 Alpha virt. eigenvalues --    1.24379   1.25073   1.25296   1.26687   1.28569
 Alpha virt. eigenvalues --    1.29361   1.29518   1.30822   1.31244   1.31392
 Alpha virt. eigenvalues --    1.31988   1.33714   1.36284   1.37754   1.38111
 Alpha virt. eigenvalues --    1.38634   1.39047   1.39909   1.40193   1.42420
 Alpha virt. eigenvalues --    1.43148   1.45115   1.45354   1.46024   1.48443
 Alpha virt. eigenvalues --    1.50005   1.50705   1.52137   1.56308   1.56754
 Alpha virt. eigenvalues --    1.57314   1.57967   1.58845   1.59686   1.60304
 Alpha virt. eigenvalues --    1.60934   1.61454   1.61494   1.61699   1.62602
 Alpha virt. eigenvalues --    1.63350   1.64477   1.65407   1.66663   1.68050
 Alpha virt. eigenvalues --    1.71752   1.72477   1.73734   1.75633   1.76162
 Alpha virt. eigenvalues --    1.76214   1.77576   1.80323   1.80826   1.81235
 Alpha virt. eigenvalues --    1.82123   1.83848   1.86253   1.87294   1.89015
 Alpha virt. eigenvalues --    1.91602   1.92245   1.92701   1.92956   1.94081
 Alpha virt. eigenvalues --    1.94977   1.95634   1.95768   1.96673   1.97498
 Alpha virt. eigenvalues --    1.98051   1.99395   2.00775   2.03927   2.04803
 Alpha virt. eigenvalues --    2.08175   2.13275   2.13627   2.15864   2.17416
 Alpha virt. eigenvalues --    2.18456   2.18938   2.19108   2.19796   2.22205
 Alpha virt. eigenvalues --    2.23004   2.23653   2.23836   2.24311   2.25514
 Alpha virt. eigenvalues --    2.31313   2.32718   2.33295   2.35146   2.43103
 Alpha virt. eigenvalues --    2.45194   2.46508   2.46601   2.51056   2.59642
 Alpha virt. eigenvalues --    2.60738   2.64280   2.67867   2.68029   2.69300
 Alpha virt. eigenvalues --    2.75147   2.77347   2.82738   2.85829   2.86243
 Alpha virt. eigenvalues --    2.91837   2.94986   2.95505   3.14024   3.14066
 Alpha virt. eigenvalues --    3.14576   3.15586   3.16785   3.18449   3.18594
 Alpha virt. eigenvalues --    3.19525   3.21435   3.22045   3.22735   3.23290
 Alpha virt. eigenvalues --    3.26901   3.28401   3.29193   3.30312   3.31685
 Alpha virt. eigenvalues --    3.32168   3.33015   3.33166   3.34216   3.34754
 Alpha virt. eigenvalues --    3.41809   3.44569   3.46532   3.47227   3.47579
 Alpha virt. eigenvalues --    3.53616   3.53914   3.54061   3.55121   3.56581
 Alpha virt. eigenvalues --    3.59141   3.60142   3.60416   3.63159   3.63441
 Alpha virt. eigenvalues --    3.63547   3.64156   3.66581   3.69364   3.70403
 Alpha virt. eigenvalues --    3.71510   3.74553   3.74732   3.77316   3.79580
 Alpha virt. eigenvalues --    3.80984   3.81061   3.84150   3.84783   3.85518
 Alpha virt. eigenvalues --    3.88564   3.90495   3.91747   3.94474   3.95116
 Alpha virt. eigenvalues --    3.96068   3.97231   3.97527   3.98134   3.98841
 Alpha virt. eigenvalues --    3.98977   3.99350   4.03464   4.04125   4.04152
 Alpha virt. eigenvalues --    4.04280   4.04874   4.05890   4.06513   4.06747
 Alpha virt. eigenvalues --    4.07490   4.08911   4.10733   4.11264   4.12670
 Alpha virt. eigenvalues --    4.13815   4.14705   4.15009   4.15890   4.17205
 Alpha virt. eigenvalues --    4.18423   4.19290   4.20265   4.20327   4.20375
 Alpha virt. eigenvalues --    4.20790   4.22556   4.22730   4.23266   4.24501
 Alpha virt. eigenvalues --    4.24573   4.25072   4.27212   4.27956   4.29163
 Alpha virt. eigenvalues --    4.29304   4.29974   4.30566   4.31168   4.32089
 Alpha virt. eigenvalues --    4.32171   4.32579   4.33809   4.34938   4.35233
 Alpha virt. eigenvalues --    4.35367   4.35426   4.36050   4.36299   4.38275
 Alpha virt. eigenvalues --    4.41338   4.41639   4.41879   4.42053   4.43651
 Alpha virt. eigenvalues --    4.44246   4.45155   4.47489   4.47675   4.47814
 Alpha virt. eigenvalues --    4.48390   4.48533   4.50959   4.52744   4.52975
 Alpha virt. eigenvalues --    4.53372   4.53787   4.54400   4.54622   4.56864
 Alpha virt. eigenvalues --    4.57494   4.58306   4.59547   4.63173   4.64669
 Alpha virt. eigenvalues --    4.65221   4.65757   4.68083   4.69025   4.71653
 Alpha virt. eigenvalues --    4.72959   4.74322   4.76438   4.76456   4.76746
 Alpha virt. eigenvalues --    4.76876   4.79275   4.79969   4.82259   4.82604
 Alpha virt. eigenvalues --    4.83138   4.85736   4.86464   4.87888   4.88114
 Alpha virt. eigenvalues --    4.95185   4.95923   4.96013   4.96561   4.96976
 Alpha virt. eigenvalues --    5.01349   5.01981   5.02430   5.03736   5.04172
 Alpha virt. eigenvalues --    5.06859   5.07580   5.09633   5.11112   5.11478
 Alpha virt. eigenvalues --    5.13625   5.14764   5.15162   5.16000   5.17022
 Alpha virt. eigenvalues --    5.18199   5.21051   5.24544   5.24792   5.25578
 Alpha virt. eigenvalues --    5.25752   5.26175   5.27655   5.27834   5.29205
 Alpha virt. eigenvalues --    5.32220   5.32243   5.34574   5.35279   5.36782
 Alpha virt. eigenvalues --    5.37783   5.39332   5.39434   5.39772   5.40527
 Alpha virt. eigenvalues --    5.44333   5.45420   5.47614   5.48151   5.49358
 Alpha virt. eigenvalues --    5.50789   5.51019   5.53309   5.53660   5.54364
 Alpha virt. eigenvalues --    5.56364   5.56741   5.59153   5.59995   5.64716
 Alpha virt. eigenvalues --    5.65592   5.66925   5.69469   5.70448   5.71247
 Alpha virt. eigenvalues --    5.73144   5.74440   5.75433   5.77677   5.78579
 Alpha virt. eigenvalues --    5.79540   5.83415   5.83587   5.86277   5.94930
 Alpha virt. eigenvalues --    5.99180   5.99632   6.00320   6.04566   6.04770
 Alpha virt. eigenvalues --    6.06435   6.14535   6.15812   6.16097   6.24445
 Alpha virt. eigenvalues --    6.25784   6.38834   6.40558   6.41014   6.47982
 Alpha virt. eigenvalues --    6.48374   6.51590   6.62095   6.66803   6.72948
 Alpha virt. eigenvalues --    6.79332   7.11924   7.12577   7.41508   9.45586
 Alpha virt. eigenvalues --   11.48875  11.58206
          Condensed to atoms (all electrons):
               1          2          3          4          5          6
     1  C    4.880948   0.428112   0.424049  -0.056507  -0.004935  -0.004009
     2  C    0.428112   4.920286   0.008979   0.015271   0.393394  -0.122428
     3  C    0.424049   0.008979   4.919659   0.458716  -0.121238   0.393459
     4  H   -0.056507   0.015271   0.458716   0.626630  -0.004363  -0.051173
     5  C   -0.004935   0.393394  -0.121238  -0.004363   5.045237   0.034642
     6  C   -0.004009  -0.122428   0.393459  -0.051173   0.034642   5.052501
     7  H    0.018845  -0.063327  -0.008750   0.000086   0.487632   0.020807
     8  H    0.019186  -0.009026  -0.064412  -0.011092   0.021324   0.489146
     9  C   -0.108829   0.024537   0.028843   0.013338   0.307212   0.301080
    10  N   -0.003048   0.017875   0.017000  -0.000196  -0.028247  -0.029250
    11  N    0.001920  -0.003115  -0.004035  -0.000108   0.040751   0.036018
    12  C   -0.000001   0.000000   0.000007   0.000000  -0.000081   0.000028
    13  C    0.000025  -0.000098   0.000019  -0.000003  -0.000899   0.004426
    14  C    0.000147  -0.000871  -0.000548  -0.000009  -0.005207  -0.001870
    15  C    0.000021   0.000124  -0.000087   0.000000   0.005534  -0.000994
    16  C   -0.000001   0.000012   0.000000   0.000000   0.000126  -0.000104
    17  C    0.000000  -0.000001  -0.000001   0.000000   0.000021   0.000024
    18  H    0.000000   0.000000   0.000000   0.000000   0.000000  -0.000004
    19  H    0.000032  -0.000059  -0.000062  -0.000001   0.000341   0.001453
    20  H    0.000000   0.000000   0.000000   0.000000  -0.000004   0.000000
    21  H    0.000031  -0.000093  -0.000051   0.000000   0.001257   0.000423
    22  H   -0.057000   0.458216   0.015335  -0.000068  -0.050389  -0.004253
    23  H    0.457910  -0.054876  -0.055246  -0.010522   0.014258   0.014106
    24  H    0.000000   0.000000   0.000000   0.000000   0.000000   0.000000
               7          8          9         10         11         12
     1  C    0.018845   0.019186  -0.108829  -0.003048   0.001920  -0.000001
     2  C   -0.063327  -0.009026   0.024537   0.017875  -0.003115   0.000000
     3  C   -0.008750  -0.064412   0.028843   0.017000  -0.004035   0.000007
     4  H    0.000086  -0.011092   0.013338  -0.000196  -0.000108   0.000000
     5  C    0.487632   0.021324   0.307212  -0.028247   0.040751  -0.000081
     6  C    0.020807   0.489146   0.301080  -0.029250   0.036018   0.000028
     7  H    0.638740   0.000843  -0.099359   0.001289   0.005392  -0.000049
     8  H    0.000843   0.639578  -0.101358   0.003408   0.004517  -0.000053
     9  C   -0.099359  -0.101358   5.207053   0.282125  -0.237910  -0.000542
    10  N    0.001289   0.003408   0.282125   6.742089   0.333359  -0.004359
    11  N    0.005392   0.004517  -0.237910   0.333359   6.746318   0.016684
    12  C   -0.000049  -0.000053  -0.000542  -0.004359   0.016684   4.915810
    13  C    0.000430   0.001434  -0.002043   0.035319  -0.030521   0.397120
    14  C   -0.002164  -0.002121  -0.008590  -0.235782   0.282324   0.025717
    15  C    0.001278   0.000338  -0.004804   0.041093  -0.029263  -0.117966
    16  C   -0.000090  -0.000057  -0.000827  -0.003234   0.017703   0.007815
    17  C    0.000030   0.000030   0.000138   0.001930  -0.003018   0.424730
    18  H    0.000000  -0.000001  -0.000007  -0.000109  -0.000193   0.459022
    19  H    0.000108   0.001664  -0.002157   0.004644   0.003617  -0.063597
    20  H    0.000001   0.000000  -0.000003  -0.000112  -0.000189   0.015347
    21  H    0.001809   0.000107  -0.002101   0.005538   0.000731  -0.008457
    22  H   -0.011043   0.000086   0.013157  -0.000195  -0.000113   0.000000
    23  H   -0.000040  -0.000027  -0.004223   0.000023   0.000028   0.000000
    24  H    0.000000   0.000000   0.000001   0.000028   0.000024  -0.055215
              13         14         15         16         17         18
     1  C    0.000025   0.000147   0.000021  -0.000001   0.000000   0.000000
     2  C   -0.000098  -0.000871   0.000124   0.000012  -0.000001   0.000000
     3  C    0.000019  -0.000548  -0.000087   0.000000  -0.000001   0.000000
     4  H   -0.000003  -0.000009   0.000000   0.000000   0.000000   0.000000
     5  C   -0.000899  -0.005207   0.005534   0.000126   0.000021   0.000000
     6  C    0.004426  -0.001870  -0.000994  -0.000104   0.000024  -0.000004
     7  H    0.000430  -0.002164   0.001278  -0.000090   0.000030   0.000000
     8  H    0.001434  -0.002121   0.000338  -0.000057   0.000030  -0.000001
     9  C   -0.002043  -0.008590  -0.004804  -0.000827   0.000138  -0.000007
    10  N    0.035319  -0.235782   0.041093  -0.003234   0.001930  -0.000109
    11  N   -0.030521   0.282324  -0.029263   0.017703  -0.003018  -0.000193
    12  C    0.397120   0.025717  -0.117966   0.007815   0.424730   0.459022
    13  C    5.045479   0.307891   0.031997  -0.120364  -0.005874  -0.051569
    14  C    0.307891   5.195481   0.312102   0.022833  -0.107223   0.013352
    15  C    0.031997   0.312102   5.042031   0.394517  -0.005920  -0.004396
    16  C   -0.120364   0.022833   0.394517   4.918411   0.429336   0.015214
    17  C   -0.005874  -0.107223  -0.005920   0.429336   4.880544  -0.056254
    18  H   -0.051569   0.013352  -0.004396   0.015214  -0.056254   0.626323
    19  H    0.488168  -0.100637   0.020973  -0.008917   0.019079  -0.011077
    20  H   -0.004243   0.013040  -0.050360   0.458324  -0.057019  -0.000066
    21  H    0.020345  -0.098266   0.487069  -0.062924   0.018612   0.000088
    22  H    0.000000  -0.000003  -0.000004   0.000000   0.000000   0.000000
    23  H    0.000000   0.000002   0.000000   0.000000   0.000000   0.000000
    24  H    0.014066  -0.004179   0.014262  -0.054825   0.457740  -0.010510
              19         20         21         22         23         24
     1  C    0.000032   0.000000   0.000031  -0.057000   0.457910   0.000000
     2  C   -0.000059   0.000000  -0.000093   0.458216  -0.054876   0.000000
     3  C   -0.000062   0.000000  -0.000051   0.015335  -0.055246   0.000000
     4  H   -0.000001   0.000000   0.000000  -0.000068  -0.010522   0.000000
     5  C    0.000341  -0.000004   0.001257  -0.050389   0.014258   0.000000
     6  C    0.001453   0.000000   0.000423  -0.004253   0.014106   0.000000
     7  H    0.000108   0.000001   0.001809  -0.011043  -0.000040   0.000000
     8  H    0.001664   0.000000   0.000107   0.000086  -0.000027   0.000000
     9  C   -0.002157  -0.000003  -0.002101   0.013157  -0.004223   0.000001
    10  N    0.004644  -0.000112   0.005538  -0.000195   0.000023   0.000028
    11  N    0.003617  -0.000189   0.000731  -0.000113   0.000028   0.000024
    12  C   -0.063597   0.015347  -0.008457   0.000000   0.000000  -0.055215
    13  C    0.488168  -0.004243   0.020345   0.000000   0.000000   0.014066
    14  C   -0.100637   0.013040  -0.098266  -0.000003   0.000002  -0.004179
    15  C    0.020973  -0.050360   0.487069  -0.000004   0.000000   0.014262
    16  C   -0.008917   0.458324  -0.062924   0.000000   0.000000  -0.054825
    17  C    0.019079  -0.057019   0.018612   0.000000   0.000000   0.457740
    18  H   -0.011077  -0.000066   0.000088   0.000000   0.000000  -0.010510
    19  H    0.638922   0.000086   0.000809   0.000000   0.000000  -0.000032
    20  H    0.000086   0.627229  -0.010991   0.000000   0.000000  -0.010557
    21  H    0.000809  -0.010991   0.638265   0.000001   0.000000  -0.000047
    22  H    0.000000   0.000000   0.000001   0.627259  -0.010552   0.000000
    23  H    0.000000   0.000000   0.000000  -0.010552   0.625776   0.000000
    24  H   -0.000032  -0.010557  -0.000047   0.000000   0.000000   0.625824
 Mulliken charges:
               1
     1  C    0.003103
     2  C   -0.012913
     3  C   -0.011636
     4  H    0.020000
     5  C   -0.136367
     6  C   -0.134030
     7  H    0.007533
     8  H    0.006485
     9  C    0.395267
    10  N   -0.181189
    11  N   -0.180923
    12  C   -0.011960
    13  C   -0.131105
    14  C    0.394582
    15  C   -0.137545
    16  C   -0.012949
    17  C    0.003094
    18  H    0.020186
    19  H    0.006643
    20  H    0.019517
    21  H    0.007843
    22  H    0.019565
    23  H    0.023380
    24  H    0.023420
 Sum of Mulliken charges =   0.00000
 Mulliken charges with hydrogens summed into heavy atoms:
               1
     1  C    0.026483
     2  C    0.006651
     3  C    0.008364
     5  C   -0.128835
     6  C   -0.127545
     9  C    0.395267
    10  N   -0.181189
    11  N   -0.180923
    12  C    0.008226
    13  C   -0.124462
    14  C    0.394582
    15  C   -0.129702
    16  C    0.006568
    17  C    0.026514
 Electronic spatial extent (au):  <R**2>=           3902.4064
 Charge=              0.0000 electrons
 Dipole moment (field-independent basis, Debye):
    X=              0.0010    Y=              0.0147    Z=             -0.0190  Tot=              0.0240
 Quadrupole moment (field-independent basis, Debye-Ang):
   XX=            -67.6983   YY=            -71.6017   ZZ=            -90.2933
   XY=             -0.0105   XZ=             -1.3534   YZ=             -0.0151
 Traceless Quadrupole moment (field-independent basis, Debye-Ang):
   XX=              8.8328   YY=              4.9294   ZZ=            -13.7622
   XY=             -0.0105   XZ=             -1.3534   YZ=             -0.0151
 Octapole moment (field-independent basis, Debye-Ang**2):
  XXX=             -0.0914  YYY=              0.0815  ZZZ=             -0.0321  XYY=             -0.0151
  XXY=             -0.5471  XXZ=             -0.3807  XZZ=              0.0485  YZZ=             -0.1784
  YYZ=             -0.0874  XYZ=             -2.5462
 Hexadecapole moment (field-independent basis, Debye-Ang**3):
 XXXX=          -4311.3795 YYYY=           -549.4725 ZZZZ=           -138.3788 XXXY=             -0.3168
 XXXZ=            -69.5631 YYYX=             -0.0673 YYYZ=             -0.0151 ZZZX=              1.0238
 ZZZY=             -0.0233 XXYY=           -804.0733 XXZZ=           -914.2234 YYZZ=           -134.6024
 XXYZ=             -0.2958 YYXZ=             -2.0786 ZZXY=              0.0746
 N-N= 7.510083626409D+02 E-N=-2.833189179280D+03  KE= 5.708515144525D+02
 No NMR shielding tensors so no spin-rotation constants.
 Leave Link  601 at Sun Jan 28 15:04:05 2024, MaxMem=  9175040000 cpu:        51.5
 (Enter /home/madghost/g09/l701.exe)
 Compute integral first derivatives.
 ... and contract with generalized density number  0.
 R6Disp: Adding Grimme-D3 dispersion energy 1st derivatives to the gradient.
 Leave Link  701 at Sun Jan 28 15:04:07 2024, MaxMem=  9175040000 cpu:        71.7
 (Enter /home/madghost/g09/l702.exe)
 L702 exits ... SP integral derivatives will be done elsewhere.
 Leave Link  702 at Sun Jan 28 15:04:08 2024, MaxMem=  9175040000 cpu:         2.8
 (Enter /home/madghost/g09/l703.exe)
 Compute integral first derivatives, UseDBF=F ICtDFT=           0.
 Integral derivatives from FoFJK, PRISM(SPDF).
 Calling FoFJK, ICntrl=      2127 FMM=F ISym2X=0 I1Cent= 0 IOpClX= 0 NMat=1 NMatS=1 NMatT=0.
 FoFJK:  IHMeth= 1 ICntrl=    2127 DoSepK=F KAlg= 0 I1Cent=   0 FoldK=F
 IRaf=         0 NMat=   1 IRICut=       1 DoRegI=T DoRafI=F ISym2E= 0.
 FoFCou: FMM=F IPFlag=           0 FMFlag=      100000 FMFlg1=         800
         NFxFlg=           0 DoJE=F BraDBF=F KetDBF=F FulRan=T
         wScrn=  0.000000 ICntrl=    2127 IOpCl=  0 I1Cent=           0 NGrid=           0
         NMat0=    1 NMatS0=      1 NMatT0=    0 NMatD0=    1 NMtDS0=    0 NMtDT0=    0
 Symmetry not used in FoFCou.
 Leave Link  703 at Sun Jan 28 15:04:36 2024, MaxMem=  9175040000 cpu:      2632.9
 (Enter /home/madghost/g09/l716.exe)
 Dipole        = 3.94873849D-04 5.76542703D-03-7.49214459D-03
 ***** Axes restored to original set *****
 -------------------------------------------------------------------
 Center     Atomic                   Forces (Hartrees/Bohr)
 Number     Number              X              Y              Z
 -------------------------------------------------------------------
      1        6           0.000405297    0.000077369    0.000003506
      2        6           0.000225790   -0.000271592   -0.000291365
      3        6          -0.000243417    0.000475186    0.000479801
      4        1           0.000006192    0.000022132    0.000050726
      5        6          -0.000078099   -0.001383759   -0.001248490
      6        6          -0.000444531    0.000137771   -0.001080179
      7        1          -0.000109200    0.000072680    0.000191977
      8        1          -0.000006792    0.000082547   -0.000196027
      9        6           0.002514185    0.002300363    0.002818598
     10        7          -0.002656081   -0.002848483   -0.002913581
     11        7          -0.002796129    0.003528878    0.003984970
     12        6          -0.000787921   -0.000940638   -0.000763399
     13        6          -0.000278318   -0.000094732    0.002027768
     14        6           0.002791913   -0.003489279   -0.005026644
     15        6           0.000363944    0.002592039    0.001540590
     16        6           0.000612923    0.000269379    0.000272727
     17        6           0.000585107   -0.000171225   -0.000218780
     18        1           0.000020004   -0.000021818   -0.000067378
     19        1           0.000160378   -0.000175160    0.000364349
     20        1           0.000025219    0.000152252    0.000251264
     21        1          -0.000341434   -0.000235788   -0.000119170
     22        1           0.000004732   -0.000096115   -0.000119254
     23        1           0.000007947   -0.000021471   -0.000026848
     24        1           0.000018292    0.000039464    0.000084839
 -------------------------------------------------------------------
 Cartesian Forces:  Max     0.005026644 RMS     0.001430903
 Leave Link  716 at Sun Jan 28 15:04:37 2024, MaxMem=  9175040000 cpu:         3.8
 (Enter /home/madghost/g09/l103.exe)

 GradGradGradGradGradGradGradGradGradGradGradGradGradGradGradGradGradGrad
 Berny optimization.
 FormGI is forming the generalized inverse of G from B-inverse, IUseBI=4.
 GSVD:  received Info=                   1 from GESDD.
 Internal  Forces:  Max     0.003289385 RMS     0.000768186
 Search for a local minimum.
 Step number   1 out of a maximum of  126 on scan point     1 out of    19
 All quantities printed in internal units (Hartrees-Bohrs-Radians)
 RMS Force = .72699D-03 SwitMx=.10000D-02 MixMth= 2
 Mixed Optimization -- En-DIIS/RFO-DIIS
 Second derivative matrix not updated -- first step.
 ITU=  0
     Eigenvalues ---    0.01946   0.01956   0.02203   0.02206   0.02207
     Eigenvalues ---    0.02211   0.02213   0.02215   0.02216   0.02217
     Eigenvalues ---    0.02217   0.02218   0.02218   0.02220   0.02221
     Eigenvalues ---    0.02222   0.02224   0.02227   0.03470   0.15998
     Eigenvalues ---    0.15999   0.15999   0.15999   0.16000   0.16000
     Eigenvalues ---    0.16000   0.16000   0.16000   0.16000   0.21991
     Eigenvalues ---    0.21995   0.22000   0.22000   0.23428   0.23444
     Eigenvalues ---    0.24804   0.24848   0.25000   0.25000   0.35795
     Eigenvalues ---    0.35798   0.35799   0.35805   0.35836   0.35842
     Eigenvalues ---    0.35842   0.35845   0.35857   0.35872   0.40498
     Eigenvalues ---    0.40778   0.42766   0.42806   0.42841   0.42861
     Eigenvalues ---    0.47033   0.47121   0.47124   0.47212   0.47259
     Eigenvalues ---    0.47276   0.47410   0.47483   0.888151000.00000
     Eigenvalues --- 1000.000001000.000001000.000001000.000001000.00000
     Eigenvalues --- 1000.000001000.000001000.000001000.000001000.00000
     Eigenvalues --- 1000.000001000.000001000.000001000.000001000.00000
     Eigenvalues --- 1000.000001000.000001000.000001000.000001000.00000
     Eigenvalues --- 1000.000001000.000001000.000001000.000001000.00000
     Eigenvalues --- 1000.000001000.000001000.000001000.000001000.00000
     Eigenvalues --- 1000.000001000.000001000.000001000.000001000.00000
     Eigenvalues --- 1000.000001000.000001000.000001000.000001000.00000
     Eigenvalues --- 1000.000001000.000001000.000001000.000001000.00000
     Eigenvalues --- 1000.000001000.000001000.000001000.000001000.00000
     Eigenvalues --- 1000.00000
 RFO step:  Lambda=-5.97414417D-04 EMin= 1.94636829D-02
 Linear search not attempted -- first point.
 Iteration  1 RMS(Cart)=  0.05103506 RMS(Int)=  0.00051735
 Iteration  2 RMS(Cart)=  0.00149132 RMS(Int)=  0.00006642
 Iteration  3 RMS(Cart)=  0.00000017 RMS(Int)=  0.00006642
 Iteration  1 RMS(Cart)=  0.00000216 RMS(Int)=  0.00000030
 Iteration  2 RMS(Cart)=  0.00000089 RMS(Int)=  0.00000033
 ITry= 1 IFail=0 DXMaxC= 1.75D-01 DCOld= 1.00D+10 DXMaxT= 3.00D-01 DXLimC= 3.00D+00 Rises=F
 Variable       Old X    -DE/DX   Delta X   Delta X   Delta X     New X
                                 (Linear)    (Quad)   (Total)
    R1        2.62720   0.00018   0.00000   0.00039   0.00039   2.62759
    R2        2.62972  -0.00043   0.00000  -0.00086  -0.00087   2.62885
    R3        2.04329  -0.00002   0.00000  -0.00006  -0.00006   2.04324
    R4        2.62702  -0.00010   0.00000  -0.00025  -0.00025   2.62677
    R5        2.04403  -0.00005   0.00000  -0.00014  -0.00014   2.04389
    R6        2.04397   0.00001   0.00000   0.00003   0.00003   2.04401
    R7        2.62495   0.00024   0.00000   0.00054   0.00054   2.62549
    R8        2.04306   0.00007   0.00000   0.00019   0.00019   2.04324
    R9        2.62732  -0.00074   0.00000  -0.00162  -0.00161   2.62571
   R10        2.04325  -0.00004   0.00000  -0.00010  -0.00010   2.04314
   R11        2.62831   0.00010   0.00000   0.00020   0.00020   2.62851
   R12        2.70882   0.00105   0.00000   0.00259   0.00259   2.71141
   R13        2.33484  -0.00276   0.00000  -0.00311  -0.00311   2.33173
   R14        2.70510   0.00212   0.00000   0.00519   0.00519   2.71029
   R15        2.62381   0.00057   0.00000   0.00127   0.00126   2.62507
   R16        2.63075  -0.00081   0.00000  -0.00162  -0.00164   2.62911
   R17        2.04387   0.00004   0.00000   0.00010   0.00010   2.04397
   R18        2.62971   0.00003   0.00000   0.00004   0.00004   2.62975
   R19        2.04330  -0.00005   0.00000  -0.00015  -0.00015   2.04315
   R20        2.62842  -0.00138   0.00000  -0.00302  -0.00300   2.62542
   R21        2.62665   0.00011   0.00000   0.00015   0.00017   2.62682
   R22        2.04282   0.00019   0.00000   0.00052   0.00052   2.04333
   R23        2.62721   0.00006   0.00000   0.00015   0.00015   2.62735
   R24        2.04399  -0.00006   0.00000  -0.00017  -0.00017   2.04382
   R25        2.04338  -0.00003   0.00000  -0.00009  -0.00009   2.04329
    A1        2.09010  -0.00010   0.00000  -0.00028  -0.00030   2.08980
    A2        2.09673   0.00006   0.00000   0.00020   0.00021   2.09694
    A3        2.09633   0.00004   0.00000   0.00010   0.00011   2.09644
    A4        2.09991   0.00029   0.00000   0.00127   0.00126   2.10117
    A5        2.09655  -0.00007   0.00000  -0.00017  -0.00016   2.09638
    A6        2.08673  -0.00022   0.00000  -0.00110  -0.00110   2.08563
    A7        2.09581   0.00006   0.00000   0.00016   0.00016   2.09597
    A8        2.10072  -0.00015   0.00000  -0.00044  -0.00047   2.10025
    A9        2.08664   0.00009   0.00000   0.00033   0.00033   2.08696
   A10        2.11119   0.00000   0.00000  -0.00010  -0.00011   2.11108
   A11        2.08483  -0.00025   0.00000  -0.00135  -0.00135   2.08349
   A12        2.08715   0.00025   0.00000   0.00146   0.00145   2.08860
   A13        2.11143  -0.00009   0.00000  -0.00060  -0.00060   2.11083
   A14        2.08399   0.00000   0.00000   0.00009   0.00008   2.08406
   A15        2.08774   0.00009   0.00000   0.00054   0.00054   2.08829
   A16        2.10619   0.00023   0.00000   0.00130   0.00121   2.10740
   A17        2.09711  -0.00202   0.00000  -0.00727  -0.00737   2.08974
   A18        2.07454   0.00188   0.00000   0.00836   0.00828   2.08282
   A19        1.99546  -0.00006   0.00000  -0.00025  -0.00025   1.99521
   A20        1.99602   0.00017   0.00000   0.00066   0.00066   1.99668
   A21        2.09979  -0.00006   0.00000   0.00022   0.00013   2.09992
   A22        2.08767   0.00003   0.00000  -0.00003  -0.00003   2.08764
   A23        2.09565   0.00003   0.00000  -0.00002  -0.00002   2.09563
   A24        2.08426   0.00001   0.00000   0.00024   0.00018   2.08443
   A25        2.11277  -0.00023   0.00000  -0.00145  -0.00144   2.11132
   A26        2.08612   0.00022   0.00000   0.00130   0.00131   2.08743
   A27        2.06602   0.00322   0.00000   0.01438   0.01420   2.08022
   A28        2.10467  -0.00329   0.00000  -0.01178  -0.01201   2.09265
   A29        2.10557   0.00021   0.00000   0.00163   0.00140   2.10697
   A30        2.08513  -0.00029   0.00000  -0.00164  -0.00164   2.08349
   A31        2.08492   0.00049   0.00000   0.00297   0.00297   2.08789
   A32        2.11312  -0.00020   0.00000  -0.00135  -0.00135   2.11178
   A33        2.09910   0.00054   0.00000   0.00236   0.00233   2.10144
   A34        2.08758  -0.00039   0.00000  -0.00195  -0.00194   2.08564
   A35        2.09650  -0.00014   0.00000  -0.00040  -0.00039   2.09610
   A36        2.09132  -0.00037   0.00000  -0.00135  -0.00141   2.08991
   A37        2.09562   0.00018   0.00000   0.00068   0.00070   2.09632
   A38        2.09620   0.00019   0.00000   0.00074   0.00076   2.09696
    D1       -0.00782   0.00020   0.00000   0.00770   0.00771  -0.00011
    D2        3.13611   0.00018   0.00000   0.00499   0.00498   3.14108
    D3        3.13985   0.00006   0.00000   0.00338   0.00339  -3.13994
    D4        0.00059   0.00003   0.00000   0.00066   0.00065   0.00125
    D5       -3.13946  -0.00016   0.00000  -0.00523  -0.00523   3.13849
[...]
 Alpha virt. eigenvalues --    0.30149   0.30208   0.30831   0.31037   0.31355
 Alpha virt. eigenvalues --    0.31502   0.31616   0.32509   0.33128   0.33308
 Alpha virt. eigenvalues --    0.34736   0.35069   0.35360   0.35667   0.35988
 Alpha virt. eigenvalues --    0.36846   0.37946   0.39043   0.39721   0.40450
 Alpha virt. eigenvalues --    0.41155   0.42426   0.44158   0.44716   0.44840
 Alpha virt. eigenvalues --    0.45138   0.45928   0.46433   0.47241   0.47429
 Alpha virt. eigenvalues --    0.48800   0.49802   0.52040   0.54879   0.56172
 Alpha virt. eigenvalues --    0.57500   0.57539   0.60086   0.60339   0.61276
 Alpha virt. eigenvalues --    0.61934   0.63519   0.63845   0.64050   0.64302
 Alpha virt. eigenvalues --    0.64904   0.67206   0.68800   0.69026   0.71135
 Alpha virt. eigenvalues --    0.71259   0.72455   0.72921   0.75812   0.75899
 Alpha virt. eigenvalues --    0.79504   0.79681   0.80645   0.81081   0.83447
 Alpha virt. eigenvalues --    0.84117   0.84937   0.85272   0.85318   0.85946
 Alpha virt. eigenvalues --    0.86225   0.90250   0.93677   0.94980   0.97147
 Alpha virt. eigenvalues --    0.97150   0.98612   1.01723   1.01966   1.02242
 Alpha virt. eigenvalues --    1.03111   1.03446   1.04201   1.05845   1.06731
 Alpha virt. eigenvalues --    1.07030   1.07982   1.08606   1.10491   1.10674
 Alpha virt. eigenvalues --    1.11469   1.11835   1.12597   1.12942   1.13114
 Alpha virt. eigenvalues --    1.14070   1.15644   1.15952   1.16130   1.18196
 Alpha virt. eigenvalues --    1.19088   1.19912   1.21005   1.21280   1.23973
 Alpha virt. eigenvalues --    1.24457   1.25007   1.25309   1.27339   1.27897
 Alpha virt. eigenvalues --    1.29343   1.29505   1.30668   1.31384   1.31441
 Alpha virt. eigenvalues --    1.32069   1.33835   1.36335   1.37805   1.37998
 Alpha virt. eigenvalues --    1.38685   1.39049   1.39786   1.40208   1.42143
 Alpha virt. eigenvalues --    1.43042   1.45154   1.45313   1.45987   1.48304
 Alpha virt. eigenvalues --    1.50108   1.50895   1.51979   1.56427   1.56656
 Alpha virt. eigenvalues --    1.57354   1.58169   1.59012   1.59745   1.60368
 Alpha virt. eigenvalues --    1.60932   1.61210   1.61367   1.61571   1.62888
 Alpha virt. eigenvalues --    1.63330   1.64279   1.65598   1.66605   1.68065
 Alpha virt. eigenvalues --    1.71838   1.72466   1.73487   1.75529   1.75982
 Alpha virt. eigenvalues --    1.76196   1.77496   1.80420   1.80747   1.81356
 Alpha virt. eigenvalues --    1.81954   1.83621   1.86238   1.87203   1.89103
 Alpha virt. eigenvalues --    1.92000   1.92298   1.92685   1.93170   1.94444
 Alpha virt. eigenvalues --    1.95150   1.95202   1.95799   1.96507   1.97764
 Alpha virt. eigenvalues --    1.97844   1.99176   2.00688   2.03776   2.05146
 Alpha virt. eigenvalues --    2.08368   2.13093   2.13750   2.15953   2.17530
 Alpha virt. eigenvalues --    2.18412   2.18781   2.19034   2.19816   2.22241
 Alpha virt. eigenvalues --    2.22816   2.23624   2.23951   2.24574   2.25445
 Alpha virt. eigenvalues --    2.31043   2.32806   2.33267   2.35097   2.43317
 Alpha virt. eigenvalues --    2.44952   2.46460   2.47063   2.50591   2.59846
 Alpha virt. eigenvalues --    2.60664   2.64194   2.67795   2.68010   2.69275
 Alpha virt. eigenvalues --    2.75136   2.77553   2.83158   2.85463   2.85832
 Alpha virt. eigenvalues --    2.91516   2.95005   2.95512   3.14020   3.14057
 Alpha virt. eigenvalues --    3.14574   3.15611   3.17073   3.18487   3.18547
 Alpha virt. eigenvalues --    3.19444   3.21566   3.22251   3.22405   3.22931
 Alpha virt. eigenvalues --    3.26871   3.28173   3.29325   3.30344   3.31782
 Alpha virt. eigenvalues --    3.32315   3.32845   3.33418   3.33876   3.34784
 Alpha virt. eigenvalues --    3.41716   3.44666   3.46643   3.47283   3.47709
 Alpha virt. eigenvalues --    3.53467   3.53749   3.53951   3.54741   3.56384
 Alpha virt. eigenvalues --    3.59518   3.60309   3.60338   3.63158   3.63405
 Alpha virt. eigenvalues --    3.63637   3.64270   3.66557   3.69447   3.70183
 Alpha virt. eigenvalues --    3.71221   3.74550   3.74871   3.77266   3.79597
 Alpha virt. eigenvalues --    3.80893   3.81157   3.84171   3.84871   3.85267
 Alpha virt. eigenvalues --    3.88369   3.90762   3.91719   3.94447   3.95074
 Alpha virt. eigenvalues --    3.96187   3.97365   3.97524   3.98256   3.98949
 Alpha virt. eigenvalues --    3.99000   3.99292   4.03140   4.04032   4.04170
 Alpha virt. eigenvalues --    4.04304   4.04844   4.05918   4.06511   4.06755
 Alpha virt. eigenvalues --    4.07635   4.08760   4.10872   4.11453   4.12478
 Alpha virt. eigenvalues --    4.13630   4.14805   4.14853   4.15845   4.16971
 Alpha virt. eigenvalues --    4.18384   4.19399   4.20212   4.20390   4.20482
 Alpha virt. eigenvalues --    4.20784   4.22518   4.22805   4.23523   4.24556
 Alpha virt. eigenvalues --    4.24562   4.25085   4.27067   4.27629   4.29310
 Alpha virt. eigenvalues --    4.29311   4.30015   4.30488   4.31013   4.31959
 Alpha virt. eigenvalues --    4.32474   4.32721   4.33876   4.35087   4.35131
 Alpha virt. eigenvalues --    4.35269   4.35431   4.36000   4.36055   4.38072
 Alpha virt. eigenvalues --    4.41363   4.41736   4.41881   4.41967   4.43524
 Alpha virt. eigenvalues --    4.44290   4.45197   4.47473   4.47576   4.47859
 Alpha virt. eigenvalues --    4.48422   4.48466   4.50841   4.52736   4.53042
 Alpha virt. eigenvalues --    4.53539   4.54045   4.54395   4.54648   4.56889
 Alpha virt. eigenvalues --    4.57474   4.58212   4.59397   4.63347   4.64371
 Alpha virt. eigenvalues --    4.65059   4.65953   4.68118   4.68790   4.71606
 Alpha virt. eigenvalues --    4.72947   4.74222   4.76394   4.76412   4.76946
 Alpha virt. eigenvalues --    4.77085   4.79088   4.79836   4.82801   4.83115
 Alpha virt. eigenvalues --    4.83383   4.85300   4.86318   4.87720   4.88248
 Alpha virt. eigenvalues --    4.95130   4.95903   4.96080   4.96520   4.96784
 Alpha virt. eigenvalues --    5.01408   5.01563   5.02057   5.03925   5.04513
 Alpha virt. eigenvalues --    5.06778   5.07976   5.09572   5.10910   5.11237
 Alpha virt. eigenvalues --    5.13460   5.14751   5.14895   5.15867   5.16877
 Alpha virt. eigenvalues --    5.18062   5.20953   5.24943   5.25025   5.25594
 Alpha virt. eigenvalues --    5.25812   5.26256   5.27561   5.27888   5.29160
 Alpha virt. eigenvalues --    5.32235   5.32250   5.34522   5.35257   5.36525
 Alpha virt. eigenvalues --    5.37776   5.39257   5.39314   5.40582   5.40655
 Alpha virt. eigenvalues --    5.44616   5.44656   5.47607   5.48392   5.49423
 Alpha virt. eigenvalues --    5.50796   5.51026   5.53509   5.53600   5.54283
 Alpha virt. eigenvalues --    5.56364   5.56708   5.59106   5.60503   5.64912
 Alpha virt. eigenvalues --    5.65641   5.66935   5.69356   5.70441   5.71306
 Alpha virt. eigenvalues --    5.73300   5.74335   5.75563   5.77675   5.78688
 Alpha virt. eigenvalues --    5.80095   5.83274   5.83801   5.86191   5.95450
 Alpha virt. eigenvalues --    5.99118   5.99838   6.00208   6.04841   6.05738
 Alpha virt. eigenvalues --    6.06344   6.14221   6.15753   6.16576   6.24386
 Alpha virt. eigenvalues --    6.26129   6.39060   6.40863   6.41494   6.47870
 Alpha virt. eigenvalues --    6.48415   6.51661   6.62024   6.66769   6.73335
 Alpha virt. eigenvalues --    6.79526   7.12138   7.12739   7.44810   9.42790
 Alpha virt. eigenvalues --   11.50507  11.56526
          Condensed to atoms (all electrons):
               1          2          3          4          5          6
     1  C    4.880686   0.426057   0.424706  -0.056571  -0.002613  -0.003671
     2  C    0.426057   4.924070   0.011063   0.015274   0.389049  -0.125152
     3  C    0.424706   0.011063   4.923082   0.458451  -0.125755   0.389995
     4  H   -0.056571   0.015274   0.458451   0.626811  -0.004319  -0.050731
     5  C   -0.002613   0.389049  -0.125755  -0.004319   5.055022   0.039159
     6  C   -0.003671  -0.125152   0.389995  -0.050731   0.039159   5.054072
     7  H    0.019181  -0.064769  -0.009128   0.000083   0.489447   0.021472
     8  H    0.019137  -0.009142  -0.065041  -0.011056   0.021896   0.488451
     9  C   -0.110509   0.029574   0.031730   0.013122   0.294934   0.301035
    10  N   -0.003241   0.018363   0.017690  -0.000178  -0.027773  -0.031555
    11  N    0.001954  -0.003247  -0.003673  -0.000100   0.040779   0.036910
    12  C   -0.000001   0.000011   0.000000   0.000000   0.000109  -0.000102
    13  C    0.000028   0.000099  -0.000102   0.000000   0.005327  -0.001010
    14  C    0.000142  -0.000688  -0.000804  -0.000006  -0.003412  -0.004154
    15  C    0.000021  -0.000124   0.000109  -0.000004  -0.001272   0.005327
    16  C   -0.000001   0.000000   0.000011   0.000000  -0.000124   0.000099
    17  C    0.000000  -0.000001  -0.000001   0.000000   0.000021   0.000028
    18  H    0.000000   0.000000   0.000000   0.000000  -0.000004   0.000000
    19  H    0.000032  -0.000084  -0.000055   0.000000   0.001255   0.000395
    20  H    0.000000   0.000000   0.000000   0.000000   0.000001  -0.000004
    21  H    0.000033  -0.000060  -0.000084   0.000000   0.000406   0.001418
    22  H   -0.056928   0.458089   0.015336  -0.000068  -0.050538  -0.004193
    23  H    0.458039  -0.055078  -0.055234  -0.010532   0.014249   0.014216
    24  H    0.000000   0.000000   0.000000   0.000000   0.000000   0.000000
               7          8          9         10         11         12
     1  C    0.019181   0.019137  -0.110509  -0.003241   0.001954  -0.000001
     2  C   -0.064769  -0.009142   0.029574   0.018363  -0.003247   0.000011
     3  C   -0.009128  -0.065041   0.031730   0.017690  -0.003673   0.000000
     4  H    0.000083  -0.011056   0.013122  -0.000178  -0.000100   0.000000
     5  C    0.489447   0.021896   0.294934  -0.027773   0.040779   0.000109
     6  C    0.021472   0.488451   0.301035  -0.031555   0.036910  -0.000102
     7  H    0.640170   0.000893  -0.101476   0.001841   0.005262  -0.000084
     8  H    0.000893   0.639942  -0.100201   0.002322   0.004054  -0.000055
     9  C   -0.101476  -0.100201   5.214646   0.292501  -0.247018  -0.000804
    10  N    0.001841   0.002322   0.292501   6.743429   0.331779  -0.003673
    11  N    0.005262   0.004054  -0.247018   0.331779   6.743431   0.017690
    12  C   -0.000084  -0.000055  -0.000804  -0.003673   0.017690   4.923083
    13  C    0.001418   0.000395  -0.004154   0.036910  -0.031555   0.389994
    14  C   -0.002295  -0.001965  -0.007295  -0.247018   0.292501   0.031731
    15  C    0.000406   0.001255  -0.003412   0.040779  -0.027773  -0.125756
    16  C   -0.000060  -0.000084  -0.000688  -0.003247   0.018363   0.011063
    17  C    0.000033   0.000032   0.000142   0.001954  -0.003241   0.424705
    18  H    0.000000   0.000000  -0.000006  -0.000100  -0.000178   0.458451
    19  H    0.001796   0.000108  -0.001965   0.004054   0.002322  -0.065041
    20  H    0.000000   0.000000  -0.000007  -0.000122  -0.000223   0.015336
    21  H    0.000116   0.001796  -0.002295   0.005262   0.001841  -0.009128
    22  H   -0.011005   0.000089   0.013265  -0.000223  -0.000122   0.000000
    23  H   -0.000027  -0.000027  -0.004272   0.000021   0.000028   0.000000
    24  H    0.000000   0.000000   0.000002   0.000028   0.000021  -0.055234
              13         14         15         16         17         18
     1  C    0.000028   0.000142   0.000021  -0.000001   0.000000   0.000000
     2  C    0.000099  -0.000688  -0.000124   0.000000  -0.000001   0.000000
     3  C   -0.000102  -0.000804   0.000109   0.000011  -0.000001   0.000000
     4  H    0.000000  -0.000006  -0.000004   0.000000   0.000000   0.000000
     5  C    0.005327  -0.003412  -0.001272  -0.000124   0.000021  -0.000004
     6  C   -0.001010  -0.004154   0.005327   0.000099   0.000028   0.000000
     7  H    0.001418  -0.002295   0.000406  -0.000060   0.000033   0.000000
     8  H    0.000395  -0.001965   0.001255  -0.000084   0.000032   0.000000
     9  C   -0.004154  -0.007295  -0.003412  -0.000688   0.000142  -0.000006
    10  N    0.036910  -0.247018   0.040779  -0.003247   0.001954  -0.000100
    11  N   -0.031555   0.292501  -0.027773   0.018363  -0.003241  -0.000178
    12  C    0.389994   0.031731  -0.125756   0.011063   0.424705   0.458451
    13  C    5.054074   0.301033   0.039160  -0.125153  -0.003671  -0.050731
    14  C    0.301033   5.214648   0.294933   0.029575  -0.110510   0.013122
    15  C    0.039160   0.294933   5.055023   0.389049  -0.002613  -0.004319
    16  C   -0.125153   0.029575   0.389049   4.924071   0.426057   0.015274
    17  C   -0.003671  -0.110510  -0.002613   0.426057   4.880686  -0.056571
    18  H   -0.050731   0.013122  -0.004319   0.015274  -0.056571   0.626811
    19  H    0.488451  -0.100201   0.021896  -0.009142   0.019137  -0.011056
    20  H   -0.004193   0.013265  -0.050538   0.458089  -0.056928  -0.000068
    21  H    0.021472  -0.101476   0.489447  -0.064769   0.019181   0.000083
    22  H   -0.000004  -0.000007   0.000001   0.000000   0.000000   0.000000
    23  H    0.000000   0.000002   0.000000   0.000000   0.000000   0.000000
    24  H    0.014216  -0.004272   0.014249  -0.055078   0.458039  -0.010532
              19         20         21         22         23         24
     1  C    0.000032   0.000000   0.000033  -0.056928   0.458039   0.000000
     2  C   -0.000084   0.000000  -0.000060   0.458089  -0.055078   0.000000
     3  C   -0.000055   0.000000  -0.000084   0.015336  -0.055234   0.000000
     4  H    0.000000   0.000000   0.000000  -0.000068  -0.010532   0.000000
     5  C    0.001255   0.000001   0.000406  -0.050538   0.014249   0.000000
     6  C    0.000395  -0.000004   0.001418  -0.004193   0.014216   0.000000
     7  H    0.001796   0.000000   0.000116  -0.011005  -0.000027   0.000000
     8  H    0.000108   0.000000   0.001796   0.000089  -0.000027   0.000000
     9  C   -0.001965  -0.000007  -0.002295   0.013265  -0.004272   0.000002
    10  N    0.004054  -0.000122   0.005262  -0.000223   0.000021   0.000028
    11  N    0.002322  -0.000223   0.001841  -0.000122   0.000028   0.000021
    12  C   -0.065041   0.015336  -0.009128   0.000000   0.000000  -0.055234
    13  C    0.488451  -0.004193   0.021472  -0.000004   0.000000   0.014216
    14  C   -0.100201   0.013265  -0.101476  -0.000007   0.000002  -0.004272
    15  C    0.021896  -0.050538   0.489447   0.000001   0.000000   0.014249
    16  C   -0.009142   0.458089  -0.064769   0.000000   0.000000  -0.055078
    17  C    0.019137  -0.056928   0.019181   0.000000   0.000000   0.458039
    18  H   -0.011056  -0.000068   0.000083   0.000000   0.000000  -0.010532
    19  H    0.639942   0.000089   0.000893   0.000000   0.000000  -0.000027
    20  H    0.000089   0.627397  -0.011005   0.000000   0.000000  -0.010557
    21  H    0.000893  -0.011005   0.640170   0.000000   0.000000  -0.000027
    22  H    0.000000   0.000000   0.000000   0.627397  -0.010557   0.000000
    23  H    0.000000   0.000000   0.000000  -0.010557   0.625817   0.000000
    24  H   -0.000027  -0.010557  -0.000027   0.000000   0.000000   0.625817
 Mulliken charges:
               1
     1  C    0.003519
     2  C   -0.013303
     3  C   -0.012294
     4  H    0.019825
     5  C   -0.135844
     6  C   -0.132004
     7  H    0.006727
     8  H    0.007204
     9  C    0.393151
    10  N   -0.179805
    11  N   -0.179807
    12  C   -0.012294
    13  C   -0.132005
    14  C    0.393151
    15  C   -0.135843
    16  C   -0.013303
    17  C    0.003519
    18  H    0.019825
    19  H    0.007204
    20  H    0.019471
    21  H    0.006727
    22  H    0.019471
    23  H    0.023355
    24  H    0.023354
 Sum of Mulliken charges =   0.00000
 Mulliken charges with hydrogens summed into heavy atoms:
               1
     1  C    0.026873
     2  C    0.006168
     3  C    0.007531
     5  C   -0.129117
     6  C   -0.124801
     9  C    0.393151
    10  N   -0.179805
    11  N   -0.179807
    12  C    0.007531
    13  C   -0.124801
    14  C    0.393151
    15  C   -0.129116
    16  C    0.006167
    17  C    0.026874
 Electronic spatial extent (au):  <R**2>=           3895.2904
 Charge=              0.0000 electrons
 Dipole moment (field-independent basis, Debye):
    X=              0.0000    Y=              0.0000    Z=              0.0000  Tot=              0.0000
 Quadrupole moment (field-independent basis, Debye-Ang):
   XX=            -67.7522   YY=            -71.5423   ZZ=            -90.3235
   XY=              0.0211   XZ=              1.4985   YZ=              0.1515
 Traceless Quadrupole moment (field-independent basis, Debye-Ang):
   XX=              8.7872   YY=              4.9970   ZZ=            -13.7842
   XY=              0.0211   XZ=              1.4985   YZ=              0.1515
 Octapole moment (field-independent basis, Debye-Ang**2):
  XXX=              0.0000  YYY=              0.0000  ZZZ=              0.0000  XYY=              0.0000
  XXY=              0.0001  XXZ=             -0.0001  XZZ=              0.0000  YZZ=              0.0000
  YYZ=              0.0000  XYZ=             -0.0001
 Hexadecapole moment (field-independent basis, Debye-Ang**3):
 XXXX=          -4303.7323 YYYY=           -549.9707 ZZZZ=           -137.8997 XXXY=              0.1366
 XXXZ=             73.7840 YYYX=              0.0347 YYYZ=              0.1615 ZZZX=             -0.7818
 ZZZY=              0.1878 XXYY=           -802.6448 XXZZ=           -912.2124 YYZZ=           -135.1039
 XXYZ=              0.3079 YYXZ=              2.9747 ZZXY=              0.0679
 N-N= 7.512659994822D+02 E-N=-2.833710527153D+03  KE= 5.708551226274D+02
 No NMR shielding tensors so no spin-rotation constants.
 Leave Link  601 at Sun Jan 28 17:39:06 2024, MaxMem=  9175040000 cpu:        52.0
 (Enter /home/madghost/g09/l9999.exe)
 1\1\GINC-NODE-24\Scan\RB3LYP\Gen\C12H10N2\POGONIN\28-Jan-2024\0\\#P b3
 lyp/gen opt(tight, ModRedundant) integral(Grid=ultrafine) EmpiricalDis
 persion=GD3\\pcseg-2 https://www.basissetexchange.org/basis/pcseg-2/fo
 rmat/gaussian94/?version=1&elements=1,6,7,8\\0,1\C,-0.2810364936,4.503
 6682013,0.2237704728\C,-0.5219160487,3.8411319994,-0.974963021\C,-0.08
 76430144,3.7711668215,1.3902303927\H,0.1018391562,4.2803917422,2.32548
 58721\C,-0.5690311728,2.4525292558,-1.0128819106\C,-0.1355343868,2.382
 5068432,1.3637617112\H,-0.7599543395,1.9278299837,-1.9386990939\H,0.00
 54064137,1.8042126426,2.2663654874\C,-0.363878684,1.7313091636,0.15728
 12716\N,-0.4889990664,0.3007806692,0.1405299273\N,0.5594209868,-0.2961
 333224,-0.1140202157\C,0.1580595369,-3.7665199084,-1.3637181814\C,0.20
 59525369,-2.377860081,-1.3372499486\C,0.4343010821,-1.7266620505,-0.13
 07706233\C,0.6394569507,-2.4478822934,1.0393922061\C,0.5923395343,-3.8
 364850997,1.0014740111\C,0.3514546133,-4.4990209303,-0.1972583699\H,-0
 .0314270303,-4.2757445602,-2.2989725738\H,0.0650114023,-1.7995662097,-
 2.2398540496\H,0.7425184915,-4.4001531689,1.912326797\H,0.8303834754,-
 1.9231836003,1.9652091122\H,-0.6720936579,4.4048000342,-1.8858159593\H
 ,-0.2467524609,5.5840473732,0.2494308711\H,0.3171689282,-5.579399967,-
 0.2229173043\\Version=EM64L-G09RevD.01\State=1-A\HF=-572.9736463,-572.
 974221,-572.9754464,-572.9770083,-572.9785652,-572.979861,-572.9807721
 ,-572.9813087,-572.9815607,-572.9816305,-572.9815536,-572.9812884,-572
 .9807494,-572.9798368,-572.9785457,-572.976993,-572.975435,-572.974215
 9,-572.9736459\RMSD=6.076e-09,8.832e-09,5.967e-09,6.694e-09,3.255e-09,
 4.936e-09,3.849e-09,3.502e-09,4.547e-09,2.372e-09,2.499e-09,5.332e-09,
 5.341e-09,5.098e-09,8.125e-09,9.358e-09,4.041e-09,3.200e-09,4.510e-09\
 PG=C01 [X(C12H10N2)]\\@


 Everywhere is walking distance if you have the time.
                                    -- Steven Wright
 Job cpu time:       8 days 17 hours  7 minutes 12.8 seconds.
 File lengths (MBytes):  RWF=    195 Int=      0 D2E=      0 Chk=     25 Scr=      1
 Normal termination of Gaussian 09 at Sun Jan 28 17:39:09 2024.
